 Entering Gaussian System, Link 0=g16
 Initial command:
 /home/g16/g16/l1.exe "/home/xiong/AlLi/Gau-2549.inp" -scrdir="/home/xiong/AlLi/"
 Entering Link 1 = /home/g16/g16/l1.exe PID=      2550.
  
 Copyright (c) 1988-2019, Gaussian, Inc.  All Rights Reserved.
  
 This is part of the Gaussian(R) 16 program.  It is based on
 the Gaussian(R) 09 system (copyright 2009, Gaussian, Inc.),
 the Gaussian(R) 03 system (copyright 2003, Gaussian, Inc.),
 the Gaussian(R) 98 system (copyright 1998, Gaussian, Inc.),
 the Gaussian(R) 94 system (copyright 1995, Gaussian, Inc.),
 the Gaussian 92(TM) system (copyright 1992, Gaussian, Inc.),
 the Gaussian 90(TM) system (copyright 1990, Gaussian, Inc.),
 the Gaussian 88(TM) system (copyright 1988, Gaussian, Inc.),
 the Gaussian 86(TM) system (copyright 1986, Carnegie Mellon
 University), and the Gaussian 82(TM) system (copyright 1983,
 Carnegie Mellon University). Gaussian is a federally registered
 trademark of Gaussian, Inc.
  
 This software contains proprietary and confidential information,
 including trade secrets, belonging to Gaussian, Inc.
  
 This software is provided under written license and may be
 used, copied, transmitted, or stored only in accord with that
 written license.
  
 The following legend is applicable only to US Government
 contracts under FAR:
  
                    RESTRICTED RIGHTS LEGEND
  
 Use, reproduction and disclosure by the US Government is
 subject to restrictions as set forth in subparagraphs (a)
 and (c) of the Commercial Computer Software - Restricted
 Rights clause in FAR 52.227-19.
  
 Gaussian, Inc.
 340 Quinnipiac St., Bldg. 40, Wallingford CT 06492
  
  
 ---------------------------------------------------------------
 Warning -- This program may not be used in any manner that
 competes with the business of Gaussian, Inc. or will provide
 assistance to any competitor of Gaussian, Inc.  The licensee
 of this program is prohibited from giving any competitor of
 Gaussian, Inc. access to this program.  By using this program,
 the user acknowledges that Gaussian, Inc. is engaged in the
 business of creating and licensing software in the field of
 computational chemistry and represents and warrants to the
 licensee that it is not a competitor of Gaussian, Inc. and that
 it will not use this program in any manner prohibited above.
 ---------------------------------------------------------------
  

 Cite this work as:
 Gaussian 16, Revision C.01,
 M. J. Frisch, G. W. Trucks, H. B. Schlegel, G. E. Scuseria, 
 M. A. Robb, J. R. Cheeseman, G. Scalmani, V. Barone, 
 G. A. Petersson, H. Nakatsuji, X. Li, M. Caricato, A. V. Marenich, 
 J. Bloino, B. G. Janesko, R. Gomperts, B. Mennucci, H. P. Hratchian, 
 J. V. Ortiz, A. F. Izmaylov, J. L. Sonnenberg, D. Williams-Young, 
 F. Ding, F. Lipparini, F. Egidi, J. Goings, B. Peng, A. Petrone, 
 T. Henderson, D. Ranasinghe, V. G. Zakrzewski, J. Gao, N. Rega, 
 G. Zheng, W. Liang, M. Hada, M. Ehara, K. Toyota, R. Fukuda, 
 J. Hasegawa, M. Ishida, T. Nakajima, Y. Honda, O. Kitao, H. Nakai, 
 T. Vreven, K. Throssell, J. A. Montgomery, Jr., J. E. Peralta, 
 F. Ogliaro, M. J. Bearpark, J. J. Heyd, E. N. Brothers, K. N. Kudin, 
 V. N. Staroverov, T. A. Keith, R. Kobayashi, J. Normand, 
 K. Raghavachari, A. P. Rendell, J. C. Burant, S. S. Iyengar, 
 J. Tomasi, M. Cossi, J. M. Millam, M. Klene, C. Adamo, R. Cammi, 
 J. W. Ochterski, R. L. Martin, K. Morokuma, O. Farkas, 
 J. B. Foresman, and D. J. Fox, Gaussian, Inc., Wallingford CT, 2019.
 
 ******************************************
 Gaussian 16:  ES64L-G16RevC.01  3-Jul-2019
                 2-Jul-2025 
 ******************************************
 %chk=h2o-ts1-fopt.chk
 %mem=50GB
 %nprocshared=64
 Will use up to   64 processors via shared memory.
 ----------------------------
 # opt freq m062x/aug-cc-pvdz
 ----------------------------
 1/18=20,19=15,26=3,38=1/1,3;
 2/9=110,12=2,17=6,18=5,40=1/2;
 3/5=16,7=10,11=2,25=1,30=1,71=1,74=-55/1,2,3;
 4//1;
 5/5=2,38=5/2;
 6/7=2,8=2,9=2,10=2,28=1/1;
 7//1,2,3,16;
 1/18=20,19=15,26=3/3(2);
 2/9=110/2;
 99//99;
 2/9=110/2;
 3/5=16,7=10,11=2,25=1,30=1,71=1,74=-55/1,2,3;
 4/5=5,16=3,69=1/1;
 5/5=2,38=5/2;
 7//1,2,3,16;
 1/18=20,19=15,26=3/3(-5);
 2/9=110/2;
 6/7=2,8=2,9=2,10=2,19=2,28=1/1;
 99/9=1/99;
 -------------------
 Title Card Required
 -------------------
 Symbolic Z-matrix:
 Charge =  0 Multiplicity = 1
 Al                   -0.82671   1.35926   0.7731 
 O                     0.85916   1.57023   0.57311 
 O                    -1.77793   1.2649   -0.68589 
 O                    -1.20201   0.05807   1.9058 
 Al                   -0.70794  -1.29107   0.96163 
 Al                   -1.05878  -0.14416  -1.42262 
 Al                    1.58429   0.24861  -0.36802 
 O                    -1.46805  -1.61251  -0.54209 
 O                     0.60776  -0.05928  -1.80805 
 O                     1.06029  -1.37574   0.75084 
 O                     3.2679   -0.08792  -0.17387 
 H                     3.93782   0.58548  -0.29285 
 H                     1.69932  -1.36222   1.47468 
 

 GradGradGradGradGradGradGradGradGradGradGradGradGradGradGradGradGradGrad
 Berny optimization.
 Initialization pass.
                           ----------------------------
                           !    Initial Parameters    !
                           ! (Angstroms and Degrees)  !
 --------------------------                            --------------------------
 ! Name  Definition              Value          Derivative Info.                !
 --------------------------------------------------------------------------------
 ! R1    R(1,2)                  1.7108         estimate D2E/DX2                !
 ! R2    R(1,3)                  1.7442         estimate D2E/DX2                !
 ! R3    R(1,4)                  1.7655         estimate D2E/DX2                !
 ! R4    R(1,5)                  2.6597         estimate D2E/DX2                !
 ! R5    R(1,6)                  2.6712         estimate D2E/DX2                !
 ! R6    R(1,7)                  2.8894         estimate D2E/DX2                !
 ! R7    R(2,7)                  1.7771         estimate D2E/DX2                !
 ! R8    R(3,6)                  1.7451         estimate D2E/DX2                !
 ! R9    R(4,5)                  1.7192         estimate D2E/DX2                !
 ! R10   R(5,6)                  2.6689         estimate D2E/DX2                !
 ! R11   R(5,7)                  3.0648         estimate D2E/DX2                !
 ! R12   R(5,8)                  1.7153         estimate D2E/DX2                !
 ! R13   R(5,10)                 1.7828         estimate D2E/DX2                !
 ! R14   R(6,7)                  2.8727         estimate D2E/DX2                !
 ! R15   R(6,8)                  1.7604         estimate D2E/DX2                !
 ! R16   R(6,9)                  1.7126         estimate D2E/DX2                !
 ! R17   R(7,9)                  1.7669         estimate D2E/DX2                !
 ! R18   R(7,11)                 1.7279         estimate D2E/DX2                !
 ! R19   R(10,13)                0.9657         estimate D2E/DX2                !
 ! R20   R(11,12)                0.9573         estimate D2E/DX2                !
 ! A1    A(2,1,3)              116.507          estimate D2E/DX2                !
 ! A2    A(2,1,4)              112.0472         estimate D2E/DX2                !
 ! A3    A(2,1,5)               95.0007         estimate D2E/DX2                !
 ! A4    A(2,1,6)               93.3784         estimate D2E/DX2                !
 ! A5    A(3,1,4)              112.387          estimate D2E/DX2                !
 ! A6    A(3,1,5)               91.7043         estimate D2E/DX2                !
 ! A7    A(3,1,7)               95.9646         estimate D2E/DX2                !
 ! A8    A(4,1,6)               95.3995         estimate D2E/DX2                !
 ! A9    A(4,1,7)               98.4796         estimate D2E/DX2                !
 ! A10   A(1,5,8)               96.0159         estimate D2E/DX2                !
 ! A11   A(1,5,10)              94.7747         estimate D2E/DX2                !
 ! A12   A(4,5,6)               96.6385         estimate D2E/DX2                !
 ! A13   A(4,5,7)               93.3803         estimate D2E/DX2                !
 ! A14   A(4,5,8)              120.0761         estimate D2E/DX2                !
 ! A15   A(4,5,10)             112.7828         estimate D2E/DX2                !
 ! A16   A(6,5,10)              92.5885         estimate D2E/DX2                !
 ! A17   A(7,5,8)               92.5928         estimate D2E/DX2                !
 ! A18   A(7,5,10)              39.7119         estimate D2E/DX2                !
 ! A19   A(8,5,10)             109.0846         estimate D2E/DX2                !
 ! A20   A(1,6,8)               94.502          estimate D2E/DX2                !
 ! A21   A(1,6,9)               94.1609         estimate D2E/DX2                !
 ! A22   A(3,6,5)               91.3756         estimate D2E/DX2                !
 ! A23   A(3,6,7)               96.5331         estimate D2E/DX2                !
 ! A24   A(3,6,8)              111.5009         estimate D2E/DX2                !
 ! A25   A(3,6,9)              117.129          estimate D2E/DX2                !
 ! A26   A(5,6,9)               95.4186         estimate D2E/DX2                !
 ! A27   A(7,6,8)               98.2979         estimate D2E/DX2                !
 ! A28   A(8,6,9)              112.3426         estimate D2E/DX2                !
 ! A29   A(1,7,9)               85.853          estimate D2E/DX2                !
 ! A30   A(1,7,11)             147.5169         estimate D2E/DX2                !
 ! A31   A(2,7,5)               80.7162         estimate D2E/DX2                !
 ! A32   A(2,7,6)               85.4505         estimate D2E/DX2                !
 ! A33   A(2,7,9)              109.6138         estimate D2E/DX2                !
 ! A34   A(2,7,11)             118.876          estimate D2E/DX2                !
 ! A35   A(5,7,9)               81.5291         estimate D2E/DX2                !
 ! A36   A(5,7,11)             125.6038         estimate D2E/DX2                !
 ! A37   A(6,7,11)             155.6626         estimate D2E/DX2                !
 ! A38   A(9,7,11)             126.5948         estimate D2E/DX2                !
 ! A39   A(5,10,13)            124.5465         estimate D2E/DX2                !
 ! A40   A(7,11,12)            122.0673         estimate D2E/DX2                !
 ! D1    D(2,1,5,8)           -110.5759         estimate D2E/DX2                !
 ! D2    D(2,1,5,10)            -0.7768         estimate D2E/DX2                !
 ! D3    D(3,1,5,8)              6.22           estimate D2E/DX2                !
 ! D4    D(3,1,5,10)           116.0191         estimate D2E/DX2                !
 ! D5    D(2,1,6,8)            112.8107         estimate D2E/DX2                !
 ! D6    D(2,1,6,9)             -0.0229         estimate D2E/DX2                !
 ! D7    D(4,1,6,8)              0.2737         estimate D2E/DX2                !
 ! D8    D(4,1,6,9)           -112.5598         estimate D2E/DX2                !
 ! D9    D(3,1,7,9)             -6.7971         estimate D2E/DX2                !
 ! D10   D(3,1,7,11)           170.7389         estimate D2E/DX2                !
 ! D11   D(4,1,7,9)            106.9526         estimate D2E/DX2                !
 ! D12   D(4,1,7,11)           -75.5113         estimate D2E/DX2                !
 ! D13   D(4,5,6,3)             -6.4752         estimate D2E/DX2                !
 ! D14   D(4,5,6,9)            110.9411         estimate D2E/DX2                !
 ! D15   D(10,5,6,3)          -119.7732         estimate D2E/DX2                !
 ! D16   D(10,5,6,9)            -2.3568         estimate D2E/DX2                !
 ! D17   D(4,5,7,2)             -4.48           estimate D2E/DX2                !
 ! D18   D(4,5,7,9)           -116.0865         estimate D2E/DX2                !
 ! D19   D(4,5,7,11)           114.5182         estimate D2E/DX2                !
 ! D20   D(8,5,7,2)            115.8655         estimate D2E/DX2                !
 ! D21   D(8,5,7,9)              4.259          estimate D2E/DX2                !
 ! D22   D(8,5,7,11)          -125.1363         estimate D2E/DX2                !
 ! D23   D(10,5,7,2)          -126.893          estimate D2E/DX2                !
 ! D24   D(10,5,7,9)           121.5005         estimate D2E/DX2                !
 ! D25   D(10,5,7,11)           -7.8947         estimate D2E/DX2                !
 ! D26   D(1,5,10,13)           91.5031         estimate D2E/DX2                !
 ! D27   D(4,5,10,13)           53.4669         estimate D2E/DX2                !
 ! D28   D(6,5,10,13)          151.7754         estimate D2E/DX2                !
 ! D29   D(7,5,10,13)          119.5386         estimate D2E/DX2                !
 ! D30   D(8,5,10,13)         -170.4383         estimate D2E/DX2                !
 ! D31   D(3,6,7,2)              6.9176         estimate D2E/DX2                !
 ! D32   D(3,6,7,11)          -174.7221         estimate D2E/DX2                !
 ! D33   D(8,6,7,2)           -106.0068         estimate D2E/DX2                !
 ! D34   D(8,6,7,11)            72.3535         estimate D2E/DX2                !
 ! D35   D(1,7,11,12)          -79.2073         estimate D2E/DX2                !
 ! D36   D(2,7,11,12)          -54.7613         estimate D2E/DX2                !
 ! D37   D(5,7,11,12)         -154.4497         estimate D2E/DX2                !
 ! D38   D(6,7,11,12)          127.1054         estimate D2E/DX2                !
 ! D39   D(9,7,11,12)           97.7313         estimate D2E/DX2                !
 --------------------------------------------------------------------------------
 Trust Radius=3.00D-01 FncErr=1.00D-07 GrdErr=1.00D-06 EigMax=2.50D+02 EigMin=1.00D-04
 Number of steps in this run=    100 maximum allowed number of steps=    100.
 GradGradGradGradGradGradGradGradGradGradGradGradGradGradGradGradGradGrad

                          Input orientation:                          
 ---------------------------------------------------------------------
 Center     Atomic      Atomic             Coordinates (Angstroms)
 Number     Number       Type             X           Y           Z
 ---------------------------------------------------------------------
      1         13           0       -0.826714    1.359255    0.773100
      2          8           0        0.859162    1.570228    0.573113
      3          8           0       -1.777931    1.264899   -0.685888
      4          8           0       -1.202007    0.058065    1.905798
      5         13           0       -0.707942   -1.291074    0.961633
      6         13           0       -1.058779   -0.144159   -1.422623
      7         13           0        1.584287    0.248605   -0.368023
      8          8           0       -1.468046   -1.612512   -0.542087
      9          8           0        0.607762   -0.059276   -1.808053
     10          8           0        1.060286   -1.375743    0.750840
     11          8           0        3.267895   -0.087918   -0.173870
     12          1           0        3.937815    0.585480   -0.292850
     13          1           0        1.699324   -1.362221    1.474678
 ---------------------------------------------------------------------
                    Distance matrix (angstroms):
                    1          2          3          4          5
     1  Al   0.000000
     2  O    1.710755   0.000000
     3  O    1.744237   2.938123   0.000000
     4  O    1.765487   2.882899   2.916329   0.000000
     5  Al   2.659680   3.285394   3.223694   1.719222   0.000000
     6  Al   2.671200   3.255854   1.745108   3.337633   2.668928
     7  Al   2.889400   1.777141   3.526812   3.601389   3.064786
     8  O    3.312465   4.097487   2.897620   2.975524   1.715300
     9  O    3.276019   2.896280   2.950292   4.133004   3.304476
    10  O    3.322872   2.958172   4.134326   2.916797   1.782760
    11  O    4.444872   3.018183   5.249061   4.932175   4.306301
    12  H    4.943249   3.346300   5.769388   5.615157   5.165098
    13  H    3.778824   3.180872   4.864268   3.258957   2.462358
                    6          7          8          9         10
     6  Al   0.000000
     7  Al   2.872672   0.000000
     8  O    1.760370   3.579217   0.000000
     9  O    1.712635   1.766940   2.885167   0.000000
    10  O    3.275848   2.040818   2.849593   2.913039   0.000000
    11  O    4.503627   1.727854   4.988898   3.122128   2.717926
    12  H    5.174429   2.378703   5.840944   3.714943   3.635362
    13  H    4.181526   2.450212   3.763272   3.696687   0.965657
                   11         12         13
    11  O    0.000000
    12  H    0.957295   0.000000
    13  H    2.608059   3.453771   0.000000
 Stoichiometry    Al4H2O7
 Framework group  C1[X(Al4H2O7)]
 Deg. of freedom    33
 Full point group                 C1      NOp   1
 Largest Abelian subgroup         C1      NOp   1
 Largest concise Abelian subgroup C1      NOp   1
                         Standard orientation:                         
 ---------------------------------------------------------------------
 Center     Atomic      Atomic             Coordinates (Angstroms)
 Number     Number       Type             X           Y           Z
 ---------------------------------------------------------------------
      1         13           0        0.895415   -0.374432    1.496739
      2          8           0       -0.803185   -0.553954    1.592726
      3          8           0        1.735020   -1.470258    0.430629
      4          8           0        1.370852    1.306818    1.243158
      5         13           0        0.823492    1.515577   -0.373178
      6         13           0        0.979598   -1.051713   -1.085801
      7         13           0       -1.581037   -0.346012    0.008448
      8          8           0        1.471937    0.547675   -1.632121
      9          8           0       -0.712167   -1.288998   -1.207249
     10          8           0       -0.954432    1.527445   -0.503863
     11          8           0       -3.240993    0.130016   -0.050047
     12          1           0       -3.926130   -0.358215    0.406715
     13          1           0       -1.537204    2.103808    0.006703
 ---------------------------------------------------------------------
 Rotational constants (GHZ):           1.0671143           0.7226430           0.7178203
 Standard basis: Aug-CC-pVDZ (5D, 7F)
 There are   309 symmetry adapted cartesian basis functions of A   symmetry.
 There are   287 symmetry adapted basis functions of A   symmetry.
   287 basis functions,   643 primitive gaussians,   309 cartesian basis functions
    55 alpha electrons       55 beta electrons
       nuclear repulsion energy      1088.7666050627 Hartrees.
 NAtoms=   13 NActive=   13 NUniq=   13 SFac= 1.00D+00 NAtFMM=   60 NAOKFM=F Big=F
 Integral buffers will be    131072 words long.
 Raffenetti 2 integral format.
 Two-electron integral symmetry is turned on.
 One-electron integrals computed using PRISM.
 NBasis=   287 RedAO= T EigKep=  8.79D-05  NBF=   287
 NBsUse=   287 1.00D-06 EigRej= -1.00D+00 NBFU=   287
 ExpMin= 1.53D-02 ExpMax= 6.42D+04 ExpMxC= 2.19D+03 IAcc=3 IRadAn=         5 AccDes= 0.00D+00
 Harris functional with IExCor= 1009 and IRadAn=       5 diagonalized for initial guess.
 HarFok:  IExCor= 1009 AccDes= 0.00D+00 IRadAn=         5 IDoV= 1 UseB2=F ITyADJ=14
 ICtDFT=  3500011 ScaDFX=  1.000000  1.000000  1.000000  1.000000
 FoFCou: FMM=F IPFlag=           0 FMFlag=      100000 FMFlg1=           0
         NFxFlg=           0 DoJE=T BraDBF=F KetDBF=T FulRan=T
         wScrn=  0.000000 ICntrl=       500 IOpCl=  0 I1Cent=   200000004 NGrid=           0
         NMat0=    1 NMatS0=      1 NMatT0=    0 NMatD0=    1 NMtDS0=    0 NMtDT0=    0
 Petite list used in FoFCou.
 Requested convergence on RMS density matrix=1.00D-08 within 128 cycles.
 Requested convergence on MAX density matrix=1.00D-06.
 Requested convergence on             energy=1.00D-06.
 No special actions if energy rises.
 SCF Done:  E(RM062X) =  -1497.91574355     A.U. after   13 cycles
            NFock= 13  Conv=0.94D-08     -V/T= 2.0043

 **********************************************************************

            Population analysis using the SCF Density.

 **********************************************************************

 Orbital symmetries:
       Occupied  (A) (A) (A) (A) (A) (A) (A) (A) (A) (A) (A) (A)
                 (A) (A) (A) (A) (A) (A) (A) (A) (A) (A) (A) (A)
                 (A) (A) (A) (A) (A) (A) (A) (A) (A) (A) (A) (A)
                 (A) (A) (A) (A) (A) (A) (A) (A) (A) (A) (A) (A)
                 (A) (A) (A) (A) (A) (A) (A)
       Virtual   (A) (A) (A) (A) (A) (A) (A) (A) (A) (A) (A) (A)
                 (A) (A) (A) (A) (A) (A) (A) (A) (A) (A) (A) (A)
                 (A) (A) (A) (A) (A) (A) (A) (A) (A) (A) (A) (A)
                 (A) (A) (A) (A) (A) (A) (A) (A) (A) (A) (A) (A)
                 (A) (A) (A) (A) (A) (A) (A) (A) (A) (A) (A) (A)
                 (A) (A) (A) (A) (A) (A) (A) (A) (A) (A) (A) (A)
                 (A) (A) (A) (A) (A) (A) (A) (A) (A) (A) (A) (A)
                 (A) (A) (A) (A) (A) (A) (A) (A) (A) (A) (A) (A)
                 (A) (A) (A) (A) (A) (A) (A) (A) (A) (A) (A) (A)
                 (A) (A) (A) (A) (A) (A) (A) (A) (A) (A) (A) (A)
                 (A) (A) (A) (A) (A) (A) (A) (A) (A) (A) (A) (A)
                 (A) (A) (A) (A) (A) (A) (A) (A) (A) (A) (A) (A)
                 (A) (A) (A) (A) (A) (A) (A) (A) (A) (A) (A) (A)
                 (A) (A) (A) (A) (A) (A) (A) (A) (A) (A) (A) (A)
                 (A) (A) (A) (A) (A) (A) (A) (A) (A) (A) (A) (A)
                 (A) (A) (A) (A) (A) (A) (A) (A) (A) (A) (A) (A)
                 (A) (A) (A) (A) (A) (A) (A) (A) (A) (A) (A) (A)
                 (A) (A) (A) (A) (A) (A) (A) (A) (A) (A) (A) (A)
                 (A) (A) (A) (A) (A) (A) (A) (A) (A) (A) (A) (A)
                 (A) (A) (A) (A)
 The electronic state is 1-A.
 Alpha  occ. eigenvalues --  -56.93753 -56.90735 -56.90725 -56.88014 -19.69475
 Alpha  occ. eigenvalues --  -19.63120 -19.62937 -19.61823 -19.60744 -19.60200
 Alpha  occ. eigenvalues --  -19.60106  -4.44598  -4.41621  -4.41618  -4.38368
 Alpha  occ. eigenvalues --   -2.95100  -2.94563  -2.94459  -2.92144  -2.92110
 Alpha  occ. eigenvalues --   -2.91553  -2.91537  -2.91502  -2.91487  -2.88754
 Alpha  occ. eigenvalues --   -2.88497  -2.88459  -1.16119  -1.07324  -1.07129
 Alpha  occ. eigenvalues --   -1.05340  -1.04395  -1.03032  -1.02094  -0.63789
 Alpha  occ. eigenvalues --   -0.57177  -0.52304  -0.51407  -0.50713  -0.49840
 Alpha  occ. eigenvalues --   -0.47484  -0.46543  -0.45210  -0.44646  -0.44201
 Alpha  occ. eigenvalues --   -0.42294  -0.41530  -0.39938  -0.38729  -0.38513
 Alpha  occ. eigenvalues --   -0.38184  -0.37495  -0.36984  -0.35710  -0.35145
 Alpha virt. eigenvalues --   -0.09664  -0.05381  -0.04224  -0.00630   0.00377
 Alpha virt. eigenvalues --    0.00865   0.01235   0.01657   0.02136   0.02205
 Alpha virt. eigenvalues --    0.02280   0.02624   0.02860   0.03871   0.03963
 Alpha virt. eigenvalues --    0.04248   0.04979   0.05789   0.06657   0.07545
 Alpha virt. eigenvalues --    0.08458   0.08652   0.09166   0.09693   0.10760
 Alpha virt. eigenvalues --    0.11066   0.11313   0.11482   0.11811   0.11877
 Alpha virt. eigenvalues --    0.12134   0.13108   0.13811   0.14454   0.14698
 Alpha virt. eigenvalues --    0.15260   0.15915   0.16227   0.16516   0.16761
 Alpha virt. eigenvalues --    0.17041   0.17729   0.18936   0.19507   0.20255
 Alpha virt. eigenvalues --    0.21260   0.21680   0.22553   0.22785   0.23865
 Alpha virt. eigenvalues --    0.24702   0.24958   0.25253   0.25702   0.25935
 Alpha virt. eigenvalues --    0.26296   0.26703   0.27323   0.27476   0.27924
 Alpha virt. eigenvalues --    0.28139   0.28542   0.29294   0.29712   0.30338
 Alpha virt. eigenvalues --    0.31412   0.31915   0.32281   0.32805   0.34275
 Alpha virt. eigenvalues --    0.35102   0.35328   0.35853   0.36462   0.37495
 Alpha virt. eigenvalues --    0.38284   0.38621   0.38921   0.39688   0.39907
 Alpha virt. eigenvalues --    0.40253   0.40862   0.41842   0.43202   0.44111
 Alpha virt. eigenvalues --    0.44320   0.45798   0.46282   0.46907   0.47551
 Alpha virt. eigenvalues --    0.48105   0.48554   0.50081   0.50499   0.51054
 Alpha virt. eigenvalues --    0.51436   0.51583   0.53120   0.53605   0.54139
 Alpha virt. eigenvalues --    0.54376   0.55514   0.56340   0.57477   0.58346
 Alpha virt. eigenvalues --    0.60142   0.61006   0.62288   0.62619   0.63596
 Alpha virt. eigenvalues --    0.64969   0.65687   0.66696   0.69529   0.73321
 Alpha virt. eigenvalues --    0.74293   0.76601   0.80503   0.81484   0.83240
 Alpha virt. eigenvalues --    0.83910   0.84776   0.85215   0.89354   0.90781
 Alpha virt. eigenvalues --    0.92299   0.94225   0.96118   0.97811   1.00000
 Alpha virt. eigenvalues --    1.00951   1.01661   1.02455   1.03333   1.04310
 Alpha virt. eigenvalues --    1.07040   1.08816   1.09657   1.10169   1.11867
 Alpha virt. eigenvalues --    1.12456   1.14319   1.14641   1.15457   1.16423
 Alpha virt. eigenvalues --    1.17370   1.17906   1.19828   1.20284   1.20588
 Alpha virt. eigenvalues --    1.22709   1.24433   1.28356   1.29428   1.32329
 Alpha virt. eigenvalues --    1.33654   1.37843   1.42878   1.44345   1.44937
 Alpha virt. eigenvalues --    1.49234   1.50589   1.51014   1.52661   1.55406
 Alpha virt. eigenvalues --    1.57786   1.61750   1.62877   1.63243   1.65428
 Alpha virt. eigenvalues --    1.65832   1.66640   1.68692   1.74649   1.76936
 Alpha virt. eigenvalues --    1.80380   1.84739   1.87506   1.90159   1.96904
 Alpha virt. eigenvalues --    1.99308   2.04889   2.10858   2.13333   2.14314
 Alpha virt. eigenvalues --    2.17495   2.20354   2.24697   2.40399   2.45941
 Alpha virt. eigenvalues --    2.46780   2.48014   2.49052   2.54942   2.57574
 Alpha virt. eigenvalues --    2.79562   2.90018   3.39607   3.40093   3.40394
 Alpha virt. eigenvalues --    3.40869   3.41430   3.42358   3.43598   3.43832
 Alpha virt. eigenvalues --    3.44547   3.44996   3.46461   3.47333   3.48098
 Alpha virt. eigenvalues --    3.48805   3.49334   3.49558   3.50340   3.50992
 Alpha virt. eigenvalues --    3.51144   3.51718   3.51946   3.53437   3.54140
 Alpha virt. eigenvalues --    3.54168   3.56298   3.57186   3.58344   3.59728
 Alpha virt. eigenvalues --    3.60759   3.61442   3.61811   3.67040   3.68523
 Alpha virt. eigenvalues --    3.90508   3.96878
          Condensed to atoms (all electrons):
               1          2          3          4          5          6
     1  Al  11.769262  -0.119527  -0.005860  -0.023742  -0.206419  -0.226350
     2  O   -0.119527   8.804073   0.073969   0.097500   0.018855   0.097622
     3  O   -0.005860   0.073969   8.767085   0.068299   0.105559  -0.018272
     4  O   -0.023742   0.097500   0.068299   8.796648   0.051705   0.096882
     5  Al  -0.206419   0.018855   0.105559   0.051705  11.550733  -0.232868
     6  Al  -0.226350   0.097622  -0.018272   0.096882  -0.232868  11.783898
     7  Al  -0.150899   0.041808   0.066127   0.035724  -0.074714  -0.177488
     8  O    0.080570  -0.006718   0.061948   0.048386   0.029427  -0.018351
     9  O    0.086014   0.050693   0.067437  -0.007584   0.031311  -0.099632
    10  O   -0.037399   0.102995   0.008263   0.080265  -0.104250   0.021245
    11  O    0.001664   0.063801   0.002383  -0.006345   0.032385  -0.040513
    12  H    0.007792  -0.008489  -0.000302  -0.000097  -0.005480   0.003692
    13  H    0.024748  -0.006037  -0.004803  -0.003141   0.028433   0.006830
               7          8          9         10         11         12
     1  Al  -0.150899   0.080570   0.086014  -0.037399   0.001664   0.007792
     2  O    0.041808  -0.006718   0.050693   0.102995   0.063801  -0.008489
     3  O    0.066127   0.061948   0.067437   0.008263   0.002383  -0.000302
     4  O    0.035724   0.048386  -0.007584   0.080265  -0.006345  -0.000097
     5  Al  -0.074714   0.029427   0.031311  -0.104250   0.032385  -0.005480
     6  Al  -0.177488  -0.018351  -0.099632   0.021245  -0.040513   0.003692
     7  Al  11.475086   0.054446   0.068612  -0.008402  -0.153349   0.086128
     8  O    0.054446   8.799068   0.072114   0.075248   0.001613  -0.000360
     9  O    0.068612   0.072114   8.754445   0.082857   0.052689   0.001716
    10  O   -0.008402   0.075248   0.082857   8.184677  -0.089059   0.007548
    11  O   -0.153349   0.001613   0.052689  -0.089059   8.544898   0.234032
    12  H    0.086128  -0.000360   0.001716   0.007548   0.234032   0.597056
    13  H    0.004563   0.002680   0.002181   0.360562   0.001970  -0.000816
              13
     1  Al   0.024748
     2  O   -0.006037
     3  O   -0.004803
     4  O   -0.003141
     5  Al   0.028433
     6  Al   0.006830
     7  Al   0.004563
     8  O    0.002680
     9  O    0.002181
    10  O    0.360562
    11  O    0.001970
    12  H   -0.000816
    13  H    0.441025
 Mulliken charges:
               1
     1  Al   1.800148
     2  O   -1.210545
     3  O   -1.191831
     4  O   -1.234499
     5  Al   1.775323
     6  Al   1.803304
     7  Al   1.732357
     8  O   -1.200071
     9  O   -1.162852
    10  O   -0.684551
    11  O   -0.646169
    12  H    0.077581
    13  H    0.141806
 Sum of Mulliken charges =  -0.00000
 Mulliken charges with hydrogens summed into heavy atoms:
               1
     1  Al   1.800148
     2  O   -1.210545
     3  O   -1.191831
     4  O   -1.234499
     5  Al   1.775323
     6  Al   1.803304
     7  Al   1.732357
     8  O   -1.200071
     9  O   -1.162852
    10  O   -0.542745
    11  O   -0.568588
 Electronic spatial extent (au):  <R**2>=           1870.6010
 Charge=              0.0000 electrons
 Dipole moment (field-independent basis, Debye):
    X=              1.8013    Y=              2.1902    Z=              0.6937  Tot=              2.9194
 Quadrupole moment (field-independent basis, Debye-Ang):
   XX=            -86.0002   YY=            -70.0279   ZZ=            -80.2097
   XY=             -0.8505   XZ=             -3.8185   YZ=             -0.5716
 Traceless Quadrupole moment (field-independent basis, Debye-Ang):
   XX=             -7.2543   YY=              8.7180   ZZ=             -1.4637
   XY=             -0.8505   XZ=             -3.8185   YZ=             -0.5716
 Octapole moment (field-independent basis, Debye-Ang**2):
  XXX=            -28.5174  YYY=             42.8669  ZZZ=             19.9536  XYY=              1.1425
  XXY=            -12.0841  XXZ=             12.4447  XZZ=             21.5275  YZZ=            -19.2547
  YYZ=            -18.7215  XYZ=              3.2862
 Hexadecapole moment (field-independent basis, Debye-Ang**3):
 XXXX=          -1088.6311 YYYY=           -512.2480 ZZZZ=           -554.0775 XXXY=             57.6701
 XXXZ=            -60.9000 YYYX=              3.0974 YYYZ=             -8.9465 ZZZX=             39.7326
 ZZZY=              0.8791 XXYY=           -272.6051 XXZZ=           -285.4014 YYZZ=           -195.6523
 XXYZ=              1.8632 YYXZ=            -44.1124 ZZXY=            -46.0027
 N-N= 1.088766605063D+03 E-N=-5.742554112750D+03  KE= 1.491555830233D+03
 Calling FoFJK, ICntrl=      2127 FMM=F ISym2X=0 I1Cent= 0 IOpClX= 0 NMat=1 NMatS=1 NMatT=0.
 ***** Axes restored to original set *****
 -------------------------------------------------------------------
 Center     Atomic                   Forces (Hartrees/Bohr)
 Number     Number              X              Y              Z
 -------------------------------------------------------------------
      1       13           0.000110860   -0.000245715    0.000341382
      2        8           0.000135805   -0.000568785    0.000650986
      3        8           0.000519195    0.000190918   -0.000129491
      4        8          -0.000696714    0.000021455   -0.000010462
      5       13          -0.001023691    0.000089310   -0.000104679
      6       13           0.000306276   -0.000068413   -0.000109356
      7       13           0.000451754   -0.000475331    0.000266632
      8        8          -0.000375391    0.000063540   -0.000071190
      9        8           0.000214036   -0.000705335    0.000214763
     10        8           0.000127059    0.000174736    0.001043325
     11        8           0.000518151    0.001155446   -0.001952440
     12        1           0.000195423    0.000297022    0.000086467
     13        1          -0.000482763    0.000071150   -0.000225936
 -------------------------------------------------------------------
 Cartesian Forces:  Max     0.001952440 RMS     0.000534824

 GradGradGradGradGradGradGradGradGradGradGradGradGradGradGradGradGradGrad
 Berny optimization.
 FormGI is forming the generalized inverse of G from B-inverse, IUseBI=4.
 Internal  Forces:  Max     0.001819460 RMS     0.000365451
 Search for a local minimum.
 Step number   1 out of a maximum of  100
 All quantities printed in internal units (Hartrees-Bohrs-Radians)
 Mixed Optimization -- En-DIIS/RFO-DIIS
 Second derivative matrix not updated -- first step.
 ITU=  0
     Eigenvalues ---    0.02455   0.02784   0.03642   0.04368   0.04951
     Eigenvalues ---    0.06039   0.06291   0.09110   0.09673   0.10209
     Eigenvalues ---    0.10729   0.11536   0.12431   0.13870   0.13987
     Eigenvalues ---    0.14463   0.16000   0.16000   0.18630   0.23655
     Eigenvalues ---    0.24499   0.26479   0.26844   0.27523   0.28276
     Eigenvalues ---    0.28812   0.30585   0.30695   0.31486   0.32113
     Eigenvalues ---    0.32736   0.54274   0.56059
 RFO step:  Lambda=-2.64644964D-04 EMin= 2.45495042D-02
 Linear search not attempted -- first point.
 Iteration  1 RMS(Cart)=  0.01185922 RMS(Int)=  0.00005705
 Iteration  2 RMS(Cart)=  0.00005424 RMS(Int)=  0.00002945
 Iteration  3 RMS(Cart)=  0.00000000 RMS(Int)=  0.00002945
 Variable       Old X    -DE/DX   Delta X   Delta X   Delta X     New X
                                 (Linear)    (Quad)   (Total)
    R1        3.23286  -0.00005   0.00000   0.00033   0.00040   3.23325
    R2        3.29613  -0.00034   0.00000  -0.00015  -0.00013   3.29600
    R3        3.33629  -0.00003   0.00000   0.00030   0.00031   3.33660
    R4        5.02607  -0.00052   0.00000  -0.00232  -0.00236   5.02371
    R5        5.04784  -0.00000   0.00000   0.00158   0.00156   5.04939
    R6        5.46017   0.00045   0.00000   0.00954   0.00951   5.46968
    R7        3.35831  -0.00013   0.00000  -0.00040  -0.00035   3.35796
    R8        3.29778  -0.00027   0.00000   0.00026   0.00026   3.29803
    R9        3.24886   0.00018   0.00000  -0.00085  -0.00085   3.24801
   R10        5.04354  -0.00028   0.00000   0.00191   0.00192   5.04546
   R11        5.79161   0.00182   0.00000   0.03221   0.03220   5.82380
   R12        3.24145   0.00032   0.00000  -0.00018  -0.00017   3.24128
   R13        3.36893  -0.00045   0.00000  -0.00162  -0.00162   3.36731
   R14        5.42856   0.00007   0.00000   0.00405   0.00402   5.43259
   R15        3.32662  -0.00009   0.00000   0.00046   0.00046   3.32708
   R16        3.23641   0.00004   0.00000  -0.00088  -0.00086   3.23555
   R17        3.33903  -0.00034   0.00000  -0.00190  -0.00189   3.33714
   R18        3.26517   0.00019   0.00000   0.00059   0.00059   3.26576
   R19        1.82483  -0.00049   0.00000  -0.00091  -0.00091   1.82392
   R20        1.80903   0.00034   0.00000   0.00061   0.00061   1.80964
    A1        2.03343   0.00001   0.00000   0.00006   0.00005   2.03348
    A2        1.95559   0.00018   0.00000   0.00134   0.00133   1.95693
    A3        1.65807   0.00004   0.00000  -0.00107  -0.00109   1.65699
    A4        1.62976  -0.00001   0.00000   0.00093   0.00090   1.63066
    A5        1.96152  -0.00013   0.00000  -0.00089  -0.00089   1.96064
    A6        1.60054  -0.00015   0.00000   0.00127   0.00127   1.60182
    A7        1.67490  -0.00024   0.00000  -0.00420  -0.00422   1.67068
    A8        1.66504   0.00012   0.00000  -0.00070  -0.00069   1.66435
    A9        1.71879   0.00065   0.00000   0.00935   0.00936   1.72816
   A10        1.67579   0.00015   0.00000   0.00080   0.00079   1.67659
   A11        1.65413   0.00005   0.00000  -0.00310  -0.00313   1.65100
   A12        1.68666   0.00017   0.00000  -0.00056  -0.00056   1.68610
   A13        1.62979   0.00014   0.00000   0.00196   0.00194   1.63174
   A14        2.09572   0.00012   0.00000  -0.00116  -0.00116   2.09457
   A15        1.96843   0.00004   0.00000  -0.00235  -0.00237   1.96606
   A16        1.61597   0.00018   0.00000   0.00312   0.00312   1.61909
   A17        1.61605  -0.00012   0.00000  -0.00386  -0.00385   1.61219
   A18        0.69310   0.00032   0.00000   0.00310   0.00314   0.69624
   A19        1.90389   0.00015   0.00000   0.00414   0.00415   1.90804
   A20        1.64937   0.00008   0.00000  -0.00062  -0.00062   1.64875
   A21        1.64342   0.00015   0.00000   0.00225   0.00223   1.64565
   A22        1.59480  -0.00024   0.00000  -0.00013  -0.00013   1.59467
   A23        1.68482  -0.00014   0.00000  -0.00253  -0.00255   1.68227
   A24        1.94606  -0.00011   0.00000   0.00203   0.00202   1.94807
   A25        2.04429   0.00010   0.00000  -0.00080  -0.00080   2.04348
   A26        1.66537   0.00016   0.00000   0.00253   0.00253   1.66790
   A27        1.71562   0.00054   0.00000   0.00518   0.00519   1.72081
   A28        1.96075   0.00012   0.00000  -0.00021  -0.00021   1.96054
   A29        1.49842   0.00006   0.00000  -0.00013  -0.00014   1.49827
   A30        2.57465   0.00017   0.00000   0.00436   0.00428   2.57894
   A31        1.40876  -0.00060   0.00000  -0.01024  -0.01024   1.39853
   A32        1.49139  -0.00002   0.00000   0.00027   0.00025   1.49164
   A33        1.91312   0.00043   0.00000   0.00709   0.00700   1.92012
   A34        2.07478   0.00003   0.00000  -0.00137  -0.00128   2.07350
   A35        1.42295  -0.00039   0.00000  -0.00616  -0.00616   1.41679
   A36        2.19220   0.00059   0.00000   0.01472   0.01468   2.20688
   A37        2.71682  -0.00000   0.00000   0.00131   0.00118   2.71801
   A38        2.20950  -0.00024   0.00000  -0.00457  -0.00452   2.20497
   A39        2.17375  -0.00037   0.00000  -0.00232  -0.00232   2.17142
   A40        2.13048  -0.00010   0.00000  -0.00060  -0.00060   2.12987
    D1       -1.92991   0.00004   0.00000  -0.00017  -0.00015  -1.93006
    D2       -0.01356   0.00022   0.00000   0.00368   0.00371  -0.00984
    D3        0.10856   0.00003   0.00000  -0.00005  -0.00004   0.10852
    D4        2.02492   0.00021   0.00000   0.00380   0.00382   2.02874
    D5        1.96892   0.00009   0.00000  -0.00337  -0.00338   1.96553
    D6       -0.00040  -0.00005   0.00000  -0.00335  -0.00336  -0.00376
    D7        0.00478  -0.00010   0.00000  -0.00477  -0.00478   0.00000
    D8       -1.96454  -0.00024   0.00000  -0.00475  -0.00476  -1.96930
    D9       -0.11863  -0.00053   0.00000  -0.01161  -0.01160  -0.13023
   D10        2.97996  -0.00056   0.00000  -0.02364  -0.02368   2.95628
   D11        1.86668  -0.00060   0.00000  -0.01173  -0.01173   1.85494
   D12       -1.31792  -0.00063   0.00000  -0.02375  -0.02381  -1.34173
   D13       -0.11301   0.00010   0.00000   0.00507   0.00506  -0.10795
   D14        1.93629   0.00019   0.00000   0.00444   0.00443   1.94072
   D15       -2.09044   0.00002   0.00000   0.00704   0.00706  -2.08337
   D16       -0.04113   0.00011   0.00000   0.00642   0.00643  -0.03470
   D17       -0.07819   0.00036   0.00000   0.01038   0.01041  -0.06778
   D18       -2.02609  -0.00031   0.00000  -0.00072  -0.00074  -2.02683
   D19        1.99872   0.00008   0.00000   0.00431   0.00431   2.00303
   D20        2.02223   0.00048   0.00000   0.00902   0.00905   2.03128
   D21        0.07433  -0.00018   0.00000  -0.00208  -0.00210   0.07223
   D22       -2.18404   0.00020   0.00000   0.00296   0.00295  -2.18109
   D23       -2.21470   0.00071   0.00000   0.01928   0.01929  -2.19541
   D24        2.12058   0.00004   0.00000   0.00818   0.00813   2.12872
   D25       -0.13779   0.00043   0.00000   0.01321   0.01319  -0.12460
   D26        1.59703  -0.00012   0.00000  -0.00276  -0.00274   1.59429
   D27        0.93317  -0.00028   0.00000  -0.00263  -0.00262   0.93056
   D28        2.64898  -0.00002   0.00000  -0.00215  -0.00215   2.64683
   D29        2.08634   0.00025   0.00000   0.00763   0.00760   2.09394
   D30       -2.97471   0.00008   0.00000  -0.00248  -0.00249  -2.97720
   D31        0.12073   0.00059   0.00000   0.01482   0.01482   0.13555
   D32       -3.04948   0.00078   0.00000   0.03073   0.03070  -3.01878
   D33       -1.85017   0.00063   0.00000   0.01229   0.01231  -1.83786
   D34        1.26281   0.00082   0.00000   0.02821   0.02820   1.29100
   D35       -1.38243   0.00044   0.00000   0.01831   0.01837  -1.36406
   D36       -0.95576  -0.00028   0.00000  -0.00140  -0.00146  -0.95723
   D37       -2.69566   0.00014   0.00000   0.00408   0.00405  -2.69160
   D38        2.21841  -0.00049   0.00000  -0.01955  -0.01956   2.19885
   D39        1.70573   0.00041   0.00000   0.00355   0.00359   1.70932
         Item               Value     Threshold  Converged?
 Maximum Force            0.001819     0.000450     NO 
 RMS     Force            0.000365     0.000300     NO 
 Maximum Displacement     0.041905     0.001800     NO 
 RMS     Displacement     0.011864     0.001200     NO 
 Predicted change in Energy=-1.336811D-04
 GradGradGradGradGradGradGradGradGradGradGradGradGradGradGradGradGradGrad

                          Input orientation:                          
 ---------------------------------------------------------------------
 Center     Atomic      Atomic             Coordinates (Angstroms)
 Number     Number       Type             X           Y           Z
 ---------------------------------------------------------------------
      1         13           0       -0.823058    1.355624    0.776522
      2          8           0        0.865307    1.556821    0.585886
      3          8           0       -1.767123    1.270216   -0.687570
      4          8           0       -1.214552    0.054657    1.904238
      5         13           0       -0.718270   -1.294276    0.961757
      6         13           0       -1.054908   -0.142925   -1.423546
      7         13           0        1.591993    0.248633   -0.372317
      8          8           0       -1.471999   -1.611176   -0.546027
      9          8           0        0.611924   -0.065703   -1.807310
     10          8           0        1.050760   -1.381195    0.766424
     11          8           0        3.280261   -0.074867   -0.194386
     12          1           0        3.943256    0.605561   -0.314758
     13          1           0        1.681522   -1.367740    1.496853
 ---------------------------------------------------------------------
                    Distance matrix (angstroms):
                    1          2          3          4          5
     1  Al   0.000000
     2  O    1.710964   0.000000
     3  O    1.744167   2.938285   0.000000
     4  O    1.765652   2.884504   2.915542   0.000000
     5  Al   2.658432   3.282948   3.224436   1.718774   0.000000
     6  Al   2.672023   3.257941   1.745245   3.337465   2.669944
     7  Al   2.894431   1.776958   3.525149   3.618981   3.081823
     8  O    3.312426   4.096392   2.899923   2.974067   1.715210
     9  O    3.279563   2.902442   2.949298   4.138368   3.308555
    10  O    3.316848   2.949394   4.133345   2.913406   1.781903
    11  O    4.452662   3.017157   5.246767   4.962293   4.337266
    12  H    4.946841   3.345119   5.761005   5.641846   5.193139
    13  H    3.769418   3.170035   4.860418   3.252141   2.459823
                    6          7          8          9         10
     6  Al   0.000000
     7  Al   2.874801   0.000000
     8  O    1.760615   3.588469   0.000000
     9  O    1.712182   1.765940   2.884797   0.000000
    10  O    3.280719   2.060583   2.853022   2.923560   0.000000
    11  O    4.506568   1.728167   5.006783   3.117953   2.756869
    12  H    5.174097   2.378897   5.855971   3.711614   3.671878
    13  H    4.185326   2.472746   3.765277   3.709021   0.965178
                   11         12         13
    11  O    0.000000
    12  H    0.957619   0.000000
    13  H    2.662288   3.505894   0.000000
 Stoichiometry    Al4H2O7
 Framework group  C1[X(Al4H2O7)]
 Deg. of freedom    33
 Full point group                 C1      NOp   1
 Largest Abelian subgroup         C1      NOp   1
 Largest concise Abelian subgroup C1      NOp   1
                         Standard orientation:                         
 ---------------------------------------------------------------------
 Center     Atomic      Atomic             Coordinates (Angstroms)
 Number     Number       Type             X           Y           Z
 ---------------------------------------------------------------------
      1         13           0        0.888814   -0.290556    1.517230
      2          8           0       -0.813109   -0.432845    1.620248
      3          8           0        1.709417   -1.464860    0.522374
      4          8           0        1.397607    1.362487    1.162115
      5         13           0        0.850750    1.482839   -0.462893
      6         13           0        0.965810   -1.125863   -1.019705
      7         13           0       -1.591619   -0.331922    0.026097
      8          8           0        1.482531    0.430331   -1.660818
      9          8           0       -0.728323   -1.346196   -1.133435
     10          8           0       -0.926394    1.519170   -0.587858
     11          8           0       -3.252729    0.136763   -0.061130
     12          1           0       -3.936393   -0.322492    0.427461
     13          1           0       -1.494418    2.135222   -0.108906
 ---------------------------------------------------------------------
 Rotational constants (GHZ):           1.0662664           0.7203576           0.7149630
 Standard basis: Aug-CC-pVDZ (5D, 7F)
 There are   309 symmetry adapted cartesian basis functions of A   symmetry.
 There are   287 symmetry adapted basis functions of A   symmetry.
   287 basis functions,   643 primitive gaussians,   309 cartesian basis functions
    55 alpha electrons       55 beta electrons
       nuclear repulsion energy      1087.6997051817 Hartrees.
 NAtoms=   13 NActive=   13 NUniq=   13 SFac= 1.00D+00 NAtFMM=   60 NAOKFM=F Big=F
 Integral buffers will be    131072 words long.
 Raffenetti 2 integral format.
 Two-electron integral symmetry is turned on.
 One-electron integrals computed using PRISM.
 NBasis=   287 RedAO= T EigKep=  8.88D-05  NBF=   287
 NBsUse=   287 1.00D-06 EigRej= -1.00D+00 NBFU=   287
 Initial guess from the checkpoint file:  "h2o-ts1-fopt.chk"
 B after Tr=     0.000000    0.000000    0.000000
         Rot=    0.999532    0.030038    0.000481    0.005735 Ang=   3.51 deg.
 ExpMin= 1.53D-02 ExpMax= 6.42D+04 ExpMxC= 2.19D+03 IAcc=3 IRadAn=         5 AccDes= 0.00D+00
 Harris functional with IExCor= 1009 and IRadAn=       5 diagonalized for initial guess.
 HarFok:  IExCor= 1009 AccDes= 0.00D+00 IRadAn=         5 IDoV= 1 UseB2=F ITyADJ=14
 ICtDFT=  3500011 ScaDFX=  1.000000  1.000000  1.000000  1.000000
 FoFCou: FMM=F IPFlag=           0 FMFlag=      100000 FMFlg1=           0
         NFxFlg=           0 DoJE=T BraDBF=F KetDBF=T FulRan=T
         wScrn=  0.000000 ICntrl=       500 IOpCl=  0 I1Cent=   200000004 NGrid=           0
         NMat0=    1 NMatS0=      1 NMatT0=    0 NMatD0=    1 NMtDS0=    0 NMtDT0=    0
 Petite list used in FoFCou.
 Requested convergence on RMS density matrix=1.00D-08 within 128 cycles.
 Requested convergence on MAX density matrix=1.00D-06.
 Requested convergence on             energy=1.00D-06.
 No special actions if energy rises.
 SCF Done:  E(RM062X) =  -1497.91589555     A.U. after   11 cycles
            NFock= 11  Conv=0.29D-08     -V/T= 2.0043
 Calling FoFJK, ICntrl=      2127 FMM=F ISym2X=0 I1Cent= 0 IOpClX= 0 NMat=1 NMatS=1 NMatT=0.
 ***** Axes restored to original set *****
 -------------------------------------------------------------------
 Center     Atomic                   Forces (Hartrees/Bohr)
 Number     Number              X              Y              Z
 -------------------------------------------------------------------
      1       13           0.000107677   -0.000511334    0.000481441
      2        8           0.000076035   -0.000238176    0.000134314
      3        8           0.000528697   -0.000012646   -0.000217816
      4        8          -0.000719015    0.000580514    0.000090344
      5       13          -0.000535339    0.000173766   -0.000114090
      6       13           0.000101289   -0.000158501    0.000264677
      7       13          -0.000066968   -0.001407243    0.001832253
      8        8          -0.000398905    0.000197972   -0.000332356
      9        8           0.000582093   -0.000470522    0.000160383
     10        8           0.001235495    0.000645016   -0.000644548
     11        8          -0.000311819    0.000822566   -0.001822938
     12        1          -0.000126454    0.000089463    0.000148940
     13        1          -0.000472786    0.000289124    0.000019393
 -------------------------------------------------------------------
 Cartesian Forces:  Max     0.001832253 RMS     0.000625426

 GradGradGradGradGradGradGradGradGradGradGradGradGradGradGradGradGradGrad
 Berny optimization.
 Using GEDIIS/GDIIS optimizer.
 FormGI is forming the generalized inverse of G from B-inverse, IUseBI=4.
 Internal  Forces:  Max     0.001021220 RMS     0.000320980
 Search for a local minimum.
 Step number   2 out of a maximum of  100
 All quantities printed in internal units (Hartrees-Bohrs-Radians)
 Mixed Optimization -- En-DIIS/RFO-DIIS
 Swapping is turned off.
 Update second derivatives using D2CorX and points    1    2
 DE= -1.52D-04 DEPred=-1.34D-04 R= 1.14D+00
 TightC=F SS=  1.41D+00  RLast= 8.52D-02 DXNew= 5.0454D-01 2.5570D-01
 Trust test= 1.14D+00 RLast= 8.52D-02 DXMaxT set to 3.00D-01
 ITU=  1  0
     Eigenvalues ---    0.01149   0.02739   0.03640   0.04352   0.04663
     Eigenvalues ---    0.06021   0.07554   0.09134   0.09620   0.10430
     Eigenvalues ---    0.10630   0.11530   0.12450   0.13812   0.13911
     Eigenvalues ---    0.14480   0.15999   0.16047   0.20923   0.23672
     Eigenvalues ---    0.24577   0.26482   0.26800   0.28066   0.28657
     Eigenvalues ---    0.28914   0.30676   0.30915   0.31498   0.32025
     Eigenvalues ---    0.33930   0.54211   0.56118
 En-DIIS/RFO-DIIS/Sim-DIIS IScMMF=       -3 using points:     2    1
 RFO step:  Lambda=-2.45192181D-04.
 DidBck=F Rises=F RFO-DIIS coefs:    2.46217   -1.46217
 Iteration  1 RMS(Cart)=  0.01459330 RMS(Int)=  0.00016829
 Iteration  2 RMS(Cart)=  0.00011963 RMS(Int)=  0.00012887
 Iteration  3 RMS(Cart)=  0.00000001 RMS(Int)=  0.00012887
 Variable       Old X    -DE/DX   Delta X   Delta X   Delta X     New X
                                 (Linear)    (Quad)   (Total)
    R1        3.23325  -0.00002   0.00058  -0.00055   0.00023   3.23348
    R2        3.29600  -0.00007  -0.00019  -0.00047  -0.00059   3.29540
    R3        3.33660  -0.00021   0.00046  -0.00224  -0.00173   3.33487
    R4        5.02371  -0.00068  -0.00345  -0.00787  -0.01149   5.01221
    R5        5.04939   0.00012   0.00227   0.00037   0.00253   5.05192
    R6        5.46968   0.00022   0.01390  -0.00432   0.00946   5.47914
    R7        3.35796  -0.00018  -0.00050   0.00028  -0.00010   3.35787
    R8        3.29803  -0.00017   0.00038  -0.00122  -0.00087   3.29716
    R9        3.24801   0.00060  -0.00124   0.00285   0.00168   3.24969
   R10        5.04546  -0.00061   0.00281  -0.00865  -0.00578   5.03968
   R11        5.82380  -0.00024   0.04708  -0.03125   0.01577   5.83957
   R12        3.24128   0.00045  -0.00025   0.00163   0.00138   3.24265
   R13        3.36731   0.00079  -0.00237   0.00572   0.00335   3.37066
   R14        5.43259  -0.00006   0.00588  -0.00501   0.00083   5.43342
   R15        3.32708  -0.00025   0.00068  -0.00201  -0.00128   3.32580
   R16        3.23555   0.00023  -0.00125   0.00005  -0.00110   3.23445
   R17        3.33714  -0.00045  -0.00276  -0.00075  -0.00344   3.33370
   R18        3.26576  -0.00077   0.00087  -0.00418  -0.00331   3.26245
   R19        1.82392  -0.00030  -0.00133  -0.00019  -0.00152   1.82240
   R20        1.80964  -0.00004   0.00089  -0.00056   0.00033   1.80997
    A1        2.03348  -0.00004   0.00007  -0.00159  -0.00157   2.03191
    A2        1.95693   0.00020   0.00195   0.00064   0.00257   1.95950
    A3        1.65699  -0.00016  -0.00159  -0.00332  -0.00496   1.65203
    A4        1.63066  -0.00012   0.00132  -0.00039   0.00084   1.63151
    A5        1.96064  -0.00015  -0.00130   0.00039  -0.00086   1.95977
    A6        1.60182  -0.00016   0.00186   0.00064   0.00252   1.60433
    A7        1.67068  -0.00012  -0.00617  -0.00072  -0.00692   1.66376
    A8        1.66435   0.00014  -0.00101  -0.00028  -0.00123   1.66312
    A9        1.72816   0.00038   0.01369  -0.00189   0.01180   1.73996
   A10        1.67659   0.00020   0.00116   0.00171   0.00285   1.67944
   A11        1.65100  -0.00082  -0.00458  -0.00706  -0.01168   1.63932
   A12        1.68610   0.00019  -0.00082   0.00152   0.00069   1.68679
   A13        1.63174   0.00035   0.00284   0.00575   0.00851   1.64025
   A14        2.09457  -0.00005  -0.00169  -0.00331  -0.00502   2.08955
   A15        1.96606  -0.00016  -0.00347   0.00120  -0.00231   1.96375
   A16        1.61909  -0.00079   0.00456  -0.00784  -0.00332   1.61577
   A17        1.61219   0.00019  -0.00564   0.00572   0.00009   1.61229
   A18        0.69624  -0.00102   0.00459  -0.01273  -0.00803   0.68821
   A19        1.90804  -0.00017   0.00607  -0.00014   0.00590   1.91394
   A20        1.64875   0.00009  -0.00091  -0.00017  -0.00113   1.64762
   A21        1.64565   0.00002   0.00326   0.00031   0.00353   1.64918
   A22        1.59467  -0.00016  -0.00019   0.00103   0.00080   1.59547
   A23        1.68227  -0.00000  -0.00372  -0.00034  -0.00411   1.67816
   A24        1.94807  -0.00013   0.00295   0.00058   0.00347   1.95154
   A25        2.04348   0.00010  -0.00118  -0.00020  -0.00137   2.04211
   A26        1.66790  -0.00011   0.00370  -0.00406  -0.00038   1.66751
   A27        1.72081   0.00029   0.00758  -0.00194   0.00565   1.72646
   A28        1.96054   0.00007  -0.00030  -0.00081  -0.00111   1.95943
   A29        1.49827   0.00010  -0.00021   0.00176   0.00151   1.49979
   A30        2.57894   0.00022   0.00626   0.00257   0.00844   2.58738
   A31        1.39853  -0.00023  -0.01497   0.00342  -0.01154   1.38698
   A32        1.49164  -0.00003   0.00036   0.00102   0.00131   1.49295
   A33        1.92012   0.00017   0.01023   0.00023   0.01021   1.93033
   A34        2.07350   0.00018  -0.00186   0.00079  -0.00079   2.07271
   A35        1.41679  -0.00010  -0.00900   0.00290  -0.00607   1.41072
   A36        2.20688   0.00034   0.02146   0.00230   0.02364   2.23052
   A37        2.71801  -0.00015   0.00173  -0.00173  -0.00062   2.71739
   A38        2.20497  -0.00033  -0.00661  -0.00462  -0.01110   2.19387
   A39        2.17142  -0.00070  -0.00340  -0.00516  -0.00856   2.16286
   A40        2.12987  -0.00023  -0.00088  -0.00180  -0.00268   2.12719
    D1       -1.93006  -0.00012  -0.00022  -0.00529  -0.00545  -1.93551
    D2       -0.00984  -0.00038   0.00543  -0.00623  -0.00079  -0.01064
    D3        0.10852  -0.00019  -0.00006  -0.00708  -0.00713   0.10138
    D4        2.02874  -0.00045   0.00559  -0.00802  -0.00248   2.02626
    D5        1.96553   0.00012  -0.00495   0.00048  -0.00447   1.96107
    D6       -0.00376   0.00003  -0.00492   0.00128  -0.00362  -0.00739
    D7        0.00000  -0.00008  -0.00698  -0.00008  -0.00704  -0.00704
    D8       -1.96930  -0.00017  -0.00695   0.00072  -0.00620  -1.97549
    D9       -0.13023  -0.00008  -0.01696   0.00197  -0.01497  -0.14520
   D10        2.95628  -0.00023  -0.03462  -0.00640  -0.04138   2.91490
   D11        1.85494  -0.00019  -0.01715   0.00187  -0.01529   1.83965
   D12       -1.34173  -0.00034  -0.03481  -0.00650  -0.04171  -1.38344
   D13       -0.10795   0.00024   0.00740   0.00690   0.01423  -0.09372
   D14        1.94072   0.00032   0.00648   0.00651   0.01292   1.95364
   D15       -2.08337   0.00050   0.01033   0.00668   0.01698  -2.06639
   D16       -0.03470   0.00057   0.00940   0.00630   0.01567  -0.01903
   D17       -0.06778   0.00014   0.01522  -0.00005   0.01521  -0.05257
   D18       -2.02683  -0.00012  -0.00108   0.00126   0.00010  -2.02673
   D19        2.00303   0.00026   0.00630   0.00397   0.01027   2.01330
   D20        2.03128   0.00014   0.01323  -0.00235   0.01091   2.04219
   D21        0.07223  -0.00012  -0.00308  -0.00105  -0.00420   0.06803
   D22       -2.18109   0.00026   0.00431   0.00166   0.00597  -2.17512
   D23       -2.19541   0.00021   0.02820  -0.00276   0.02550  -2.16991
   D24        2.12872  -0.00005   0.01189  -0.00146   0.01040   2.13912
   D25       -0.12460   0.00033   0.01928   0.00125   0.02057  -0.10403
   D26        1.59429  -0.00016  -0.00401  -0.00363  -0.00760   1.58669
   D27        0.93056   0.00010  -0.00383  -0.00064  -0.00444   0.92612
   D28        2.64683  -0.00004  -0.00314  -0.00221  -0.00535   2.64148
   D29        2.09394  -0.00001   0.01111  -0.00421   0.00691   2.10085
   D30       -2.97720  -0.00028  -0.00364  -0.00440  -0.00811  -2.98530
   D31        0.13555   0.00010   0.02166  -0.00298   0.01864   0.15419
   D32       -3.01878   0.00052   0.04489   0.01094   0.05554  -2.96324
   D33       -1.83786   0.00018   0.01800  -0.00315   0.01491  -1.82295
   D34        1.29100   0.00060   0.04123   0.01078   0.05181   1.34281
   D35       -1.36406   0.00036   0.02686   0.00832   0.03549  -1.32857
   D36       -0.95723   0.00008  -0.00214   0.00754   0.00513  -0.95210
   D37       -2.69160   0.00004   0.00593   0.00047   0.00618  -2.68542
   D38        2.19885  -0.00039  -0.02860  -0.00829  -0.03684   2.16201
   D39        1.70932   0.00019   0.00525  -0.00183   0.00355   1.71287
         Item               Value     Threshold  Converged?
 Maximum Force            0.001021     0.000450     NO 
 RMS     Force            0.000321     0.000300     NO 
 Maximum Displacement     0.048880     0.001800     NO 
 RMS     Displacement     0.014590     0.001200     NO 
 Predicted change in Energy=-1.250514D-04
 GradGradGradGradGradGradGradGradGradGradGradGradGradGradGradGradGradGrad

                          Input orientation:                          
 ---------------------------------------------------------------------
 Center     Atomic      Atomic             Coordinates (Angstroms)
 Number     Number       Type             X           Y           Z
 ---------------------------------------------------------------------
      1         13           0       -0.818346    1.347772    0.784285
      2          8           0        0.873611    1.532825    0.608638
      3          8           0       -1.748322    1.277476   -0.689222
      4          8           0       -1.236494    0.047931    1.902257
      5         13           0       -0.728556   -1.297290    0.959060
      6         13           0       -1.048590   -0.142284   -1.423335
      7         13           0        1.599470    0.239679   -0.370288
      8          8           0       -1.479843   -1.609198   -0.551808
      9          8           0        0.619420   -0.079496   -1.801982
     10          8           0        1.043990   -1.371779    0.774598
     11          8           0        3.291909   -0.065900   -0.219362
     12          1           0        3.943550    0.625498   -0.340624
     13          1           0        1.663312   -1.351605    1.513550
 ---------------------------------------------------------------------
                    Distance matrix (angstroms):
                    1          2          3          4          5
     1  Al   0.000000
     2  O    1.711086   0.000000
     3  O    1.743852   2.936695   0.000000
     4  O    1.764737   2.886331   2.913677   0.000000
     5  Al   2.652350   3.270976   3.222759   1.719662   0.000000
     6  Al   2.673362   3.260331   1.744782   3.336323   2.666884
     7  Al   2.899438   1.776906   3.519440   3.639220   3.090169
     8  O    3.311555   4.093616   2.902387   2.971150   1.715938
     9  O    3.285277   2.911234   2.947170   4.145123   3.305059
    10  O    3.296111   2.914326   4.118049   2.913383   1.783675
    11  O    4.460938   3.014907   5.237304   5.002065   4.366823
    12  H    4.945984   3.338992   5.739687   5.674236   5.216787
    13  H    3.738594   3.124488   4.837718   3.243250   2.455900
                    6          7          8          9         10
     6  Al   0.000000
     7  Al   2.875243   0.000000
     8  O    1.759936   3.596312   0.000000
     9  O    1.711599   1.764119   2.882677   0.000000
    10  O    3.274364   2.053319   2.861023   2.913592   0.000000
    11  O    4.505032   1.726414   5.026122   3.105973   2.783238
    12  H    5.165580   2.375805   5.869553   3.698976   3.693276
    13  H    4.176382   2.466801   3.769812   3.701449   0.964374
                   11         12         13
    11  O    0.000000
    12  H    0.957795   0.000000
    13  H    2.703396   3.542087   0.000000
 Stoichiometry    Al4H2O7
 Framework group  C1[X(Al4H2O7)]
 Deg. of freedom    33
 Full point group                 C1      NOp   1
 Largest Abelian subgroup         C1      NOp   1
 Largest concise Abelian subgroup C1      NOp   1
                         Standard orientation:                         
 ---------------------------------------------------------------------
 Center     Atomic      Atomic             Coordinates (Angstroms)
 Number     Number       Type             X           Y           Z
 ---------------------------------------------------------------------
      1         13           0        0.884494   -0.059197    1.543692
      2          8           0       -0.820575   -0.144494    1.658927
      3          8           0        1.676074   -1.393407    0.747260
      4          8           0        1.436596    1.504074    0.938993
      5         13           0        0.877890    1.382199   -0.682806
      6         13           0        0.947614   -1.279478   -0.834079
      7         13           0       -1.600812   -0.302435    0.070318
      8          8           0        1.494240    0.149094   -1.704572
      9          8           0       -0.749260   -1.484387   -0.924652
     10          8           0       -0.901672    1.422414   -0.796988
     11          8           0       -3.263876    0.134032   -0.085312
     12          1           0       -3.941139   -0.245788    0.475422
     13          1           0       -1.450509    2.113017   -0.407291
 ---------------------------------------------------------------------
 Rotational constants (GHZ):           1.0701223           0.7187207           0.7133143
 Standard basis: Aug-CC-pVDZ (5D, 7F)
 There are   309 symmetry adapted cartesian basis functions of A   symmetry.
 There are   287 symmetry adapted basis functions of A   symmetry.
   287 basis functions,   643 primitive gaussians,   309 cartesian basis functions
    55 alpha electrons       55 beta electrons
       nuclear repulsion energy      1087.8611943698 Hartrees.
 NAtoms=   13 NActive=   13 NUniq=   13 SFac= 1.00D+00 NAtFMM=   60 NAOKFM=F Big=F
 Integral buffers will be    131072 words long.
 Raffenetti 2 integral format.
 Two-electron integral symmetry is turned on.
 One-electron integrals computed using PRISM.
 NBasis=   287 RedAO= T EigKep=  8.88D-05  NBF=   287
 NBsUse=   287 1.00D-06 EigRej= -1.00D+00 NBFU=   287
 Initial guess from the checkpoint file:  "h2o-ts1-fopt.chk"
 B after Tr=     0.000000   -0.000000   -0.000000
         Rot=    0.997017    0.076909    0.000404    0.006452 Ang=   8.85 deg.
 ExpMin= 1.53D-02 ExpMax= 6.42D+04 ExpMxC= 2.19D+03 IAcc=3 IRadAn=         5 AccDes= 0.00D+00
 Harris functional with IExCor= 1009 and IRadAn=       5 diagonalized for initial guess.
 HarFok:  IExCor= 1009 AccDes= 0.00D+00 IRadAn=         5 IDoV= 1 UseB2=F ITyADJ=14
 ICtDFT=  3500011 ScaDFX=  1.000000  1.000000  1.000000  1.000000
 FoFCou: FMM=F IPFlag=           0 FMFlag=      100000 FMFlg1=           0
         NFxFlg=           0 DoJE=T BraDBF=F KetDBF=T FulRan=T
         wScrn=  0.000000 ICntrl=       500 IOpCl=  0 I1Cent=   200000004 NGrid=           0
         NMat0=    1 NMatS0=      1 NMatT0=    0 NMatD0=    1 NMtDS0=    0 NMtDT0=    0
 Petite list used in FoFCou.
 Requested convergence on RMS density matrix=1.00D-08 within 128 cycles.
 Requested convergence on MAX density matrix=1.00D-06.
 Requested convergence on             energy=1.00D-06.
 No special actions if energy rises.
 SCF Done:  E(RM062X) =  -1497.91603577     A.U. after   11 cycles
            NFock= 11  Conv=0.54D-08     -V/T= 2.0043
 Calling FoFJK, ICntrl=      2127 FMM=F ISym2X=0 I1Cent= 0 IOpClX= 0 NMat=1 NMatS=1 NMatT=0.
 ***** Axes restored to original set *****
 -------------------------------------------------------------------
 Center     Atomic                   Forces (Hartrees/Bohr)
 Number     Number              X              Y              Z
 -------------------------------------------------------------------
      1       13           0.000344680    0.000161629    0.000241768
      2        8          -0.000237073    0.000635975   -0.000285056
      3        8           0.000131132   -0.000096932   -0.000265842
      4        8          -0.000092864   -0.000082500    0.000314982
      5       13          -0.000861547    0.000526315   -0.000265807
      6       13           0.000189279    0.000126029   -0.000201323
      7       13          -0.000811164   -0.000947979    0.002132362
      8        8           0.000043000   -0.000043991    0.000263530
      9        8           0.000259436   -0.000009385   -0.000447655
     10        8           0.001243185   -0.000849008   -0.001251992
     11        8           0.000064918    0.000508988   -0.001453037
     12        1          -0.000177613   -0.000110167    0.000300632
     13        1          -0.000095371    0.000181025    0.000917440
 -------------------------------------------------------------------
 Cartesian Forces:  Max     0.002132362 RMS     0.000636699

 GradGradGradGradGradGradGradGradGradGradGradGradGradGradGradGradGradGrad
 Berny optimization.
 Using GEDIIS/GDIIS optimizer.
 FormGI is forming the generalized inverse of G from B-inverse, IUseBI=4.
 Internal  Forces:  Max     0.001234845 RMS     0.000257668
 Search for a local minimum.
 Step number   3 out of a maximum of  100
 All quantities printed in internal units (Hartrees-Bohrs-Radians)
 Mixed Optimization -- En-DIIS/RFO-DIIS
 Swapping is turned off.
 Update second derivatives using D2CorX and points    1    2    3
 DE= -1.40D-04 DEPred=-1.25D-04 R= 1.12D+00
 TightC=F SS=  1.41D+00  RLast= 1.35D-01 DXNew= 5.0454D-01 4.0586D-01
 Trust test= 1.12D+00 RLast= 1.35D-01 DXMaxT set to 4.06D-01
 ITU=  1  1  0
     Eigenvalues ---    0.00747   0.02806   0.03639   0.04344   0.05260
     Eigenvalues ---    0.06014   0.07561   0.09087   0.09567   0.10616
     Eigenvalues ---    0.10839   0.11526   0.12398   0.13717   0.13947
     Eigenvalues ---    0.14552   0.16007   0.16576   0.21594   0.23684
     Eigenvalues ---    0.24989   0.26495   0.27011   0.28297   0.28701
     Eigenvalues ---    0.29236   0.30728   0.30971   0.31523   0.32272
     Eigenvalues ---    0.33851   0.54672   0.56196
 En-DIIS/RFO-DIIS/Sim-DIIS IScMMF=       -3 using points:     3    2    1
 RFO step:  Lambda=-7.41438690D-05.
 DidBck=F Rises=F RFO-DIIS coefs:    1.27979    0.02066   -0.30045
 Iteration  1 RMS(Cart)=  0.00664324 RMS(Int)=  0.00009657
 Iteration  2 RMS(Cart)=  0.00003002 RMS(Int)=  0.00009173
 Iteration  3 RMS(Cart)=  0.00000000 RMS(Int)=  0.00009173
 Variable       Old X    -DE/DX   Delta X   Delta X   Delta X     New X
                                 (Linear)    (Quad)   (Total)
    R1        3.23348  -0.00009   0.00018  -0.00073  -0.00044   3.23305
    R2        3.29540   0.00008  -0.00021   0.00053   0.00037   3.29578
    R3        3.33487   0.00016  -0.00039   0.00077   0.00040   3.33527
    R4        5.01221   0.00014  -0.00392   0.00162  -0.00242   5.00979
    R5        5.05192   0.00015   0.00118   0.00064   0.00175   5.05367
    R6        5.47914  -0.00027   0.00550  -0.00499   0.00045   5.47960
    R7        3.35787   0.00035  -0.00013   0.00094   0.00087   3.35874
    R8        3.29716  -0.00017  -0.00017  -0.00038  -0.00059   3.29658
    R9        3.24969   0.00013   0.00022   0.00058   0.00083   3.25052
   R10        5.03968   0.00002  -0.00104  -0.00020  -0.00119   5.03849
   R11        5.83957  -0.00027   0.01409  -0.00982   0.00424   5.84381
   R12        3.24265  -0.00022   0.00033  -0.00059  -0.00026   3.24239
   R13        3.37066   0.00120   0.00045   0.00422   0.00467   3.37533
   R14        5.43342  -0.00030   0.00144  -0.00359  -0.00216   5.43126
   R15        3.32580   0.00003  -0.00022   0.00020   0.00001   3.32581
   R16        3.23445   0.00015  -0.00057   0.00005  -0.00046   3.23399
   R17        3.33370   0.00026  -0.00153   0.00092  -0.00057   3.33313
   R18        3.26245  -0.00028  -0.00075  -0.00074  -0.00149   3.26096
   R19        1.82240   0.00065  -0.00070   0.00131   0.00061   1.82302
   R20        1.80997  -0.00024   0.00028  -0.00049  -0.00021   1.80976
    A1        2.03191  -0.00018  -0.00042  -0.00170  -0.00214   2.02977
    A2        1.95950   0.00015   0.00112   0.00118   0.00229   1.96179
    A3        1.65203   0.00021  -0.00171   0.00218   0.00045   1.65248
    A4        1.63151   0.00005   0.00051  -0.00045   0.00001   1.63152
    A5        1.95977   0.00009  -0.00051   0.00077   0.00031   1.96008
    A6        1.60433  -0.00005   0.00109  -0.00071   0.00040   1.60473
    A7        1.66376  -0.00015  -0.00320   0.00045  -0.00277   1.66099
    A8        1.66312   0.00001  -0.00055   0.00033  -0.00016   1.66296
    A9        1.73996  -0.00005   0.00612  -0.00294   0.00318   1.74314
   A10        1.67944   0.00001   0.00104  -0.00018   0.00084   1.68028
   A11        1.63932   0.00043  -0.00421   0.00371  -0.00051   1.63881
   A12        1.68679   0.00007   0.00002   0.00066   0.00070   1.68749
   A13        1.64025  -0.00004   0.00296  -0.00118   0.00174   1.64199
   A14        2.08955   0.00009  -0.00175   0.00104  -0.00072   2.08884
   A15        1.96375   0.00018  -0.00136   0.00158   0.00020   1.96395
   A16        1.61577   0.00037   0.00001   0.00140   0.00138   1.61714
   A17        1.61229  -0.00003  -0.00113   0.00087  -0.00027   1.61202
   A18        0.68821   0.00051  -0.00130   0.00262   0.00138   0.68959
   A19        1.91394   0.00010   0.00290  -0.00049   0.00239   1.91633
   A20        1.64762  -0.00004  -0.00050  -0.00004  -0.00058   1.64703
   A21        1.64918   0.00011   0.00166  -0.00021   0.00143   1.65061
   A22        1.59547   0.00004   0.00018   0.00005   0.00021   1.59569
   A23        1.67816  -0.00009  -0.00192   0.00020  -0.00174   1.67642
   A24        1.95154   0.00005   0.00158  -0.00066   0.00086   1.95240
   A25        2.04211  -0.00005  -0.00063   0.00007  -0.00054   2.04157
   A26        1.66751   0.00016   0.00065   0.00005   0.00069   1.66820
   A27        1.72646  -0.00007   0.00314  -0.00134   0.00180   1.72827
   A28        1.95943   0.00007  -0.00037   0.00063   0.00026   1.95969
   A29        1.49979   0.00021   0.00038   0.00130   0.00166   1.50145
   A30        2.58738   0.00018   0.00365   0.00131   0.00469   2.59206
   A31        1.38698   0.00023  -0.00631   0.00468  -0.00162   1.38536
   A32        1.49295   0.00010   0.00044   0.00051   0.00090   1.49385
   A33        1.93033   0.00009   0.00496  -0.00162   0.00320   1.93352
   A34        2.07271   0.00013  -0.00060   0.00075   0.00028   2.07299
   A35        1.41072   0.00021  -0.00355   0.00259  -0.00094   1.40978
   A36        2.23052   0.00004   0.01102   0.00104   0.01200   2.24252
   A37        2.71739  -0.00023   0.00018  -0.00138  -0.00164   2.71575
   A38        2.19387  -0.00040  -0.00446  -0.00293  -0.00734   2.18654
   A39        2.16286  -0.00123  -0.00309  -0.00685  -0.00995   2.15292
   A40        2.12719  -0.00000  -0.00093   0.00016  -0.00078   2.12642
    D1       -1.93551   0.00008  -0.00157   0.00128  -0.00026  -1.93577
    D2       -0.01064   0.00024   0.00089   0.00129   0.00219  -0.00845
    D3        0.10138  -0.00009  -0.00201  -0.00033  -0.00234   0.09905
    D4        2.02626   0.00007   0.00045  -0.00032   0.00011   2.02637
    D5        1.96107   0.00017  -0.00227   0.00319   0.00093   1.96200
    D6       -0.00739   0.00010  -0.00203   0.00258   0.00057  -0.00681
    D7       -0.00704   0.00001  -0.00340   0.00202  -0.00136  -0.00840
    D8       -1.97549  -0.00006  -0.00316   0.00141  -0.00172  -1.97721
    D9       -0.14520   0.00010  -0.00767   0.00346  -0.00419  -0.14939
   D10        2.91490  -0.00011  -0.01869  -0.00283  -0.02183   2.89307
   D11        1.83965   0.00015  -0.00780   0.00384  -0.00395   1.83571
   D12       -1.38344  -0.00007  -0.01882  -0.00245  -0.02158  -1.40502
   D13       -0.09372   0.00002   0.00550  -0.00194   0.00352  -0.09020
   D14        1.95364  -0.00001   0.00495  -0.00186   0.00305   1.95669
   D15       -2.06639  -0.00022   0.00687  -0.00381   0.00304  -2.06334
   D16       -0.01903  -0.00025   0.00632  -0.00372   0.00258  -0.01646
   D17       -0.05257  -0.00016   0.00738  -0.00467   0.00272  -0.04985
   D18       -2.02673  -0.00014  -0.00019  -0.00108  -0.00131  -2.02804
   D19        2.01330   0.00019   0.00417   0.00016   0.00435   2.01765
   D20        2.04219  -0.00007   0.00577  -0.00364   0.00213   2.04432
   D21        0.06803  -0.00005  -0.00181  -0.00005  -0.00190   0.06613
   D22       -2.17512   0.00028   0.00256   0.00119   0.00375  -2.17137
   D23       -2.16991  -0.00018   0.01293  -0.00727   0.00569  -2.16422
   D24        2.13912  -0.00016   0.00535  -0.00367   0.00166   2.14077
   D25       -0.10403   0.00017   0.00972  -0.00243   0.00731  -0.09672
   D26        1.58669  -0.00003  -0.00295  -0.00014  -0.00306   1.58363
   D27        0.92612  -0.00024  -0.00203  -0.00151  -0.00354   0.92258
   D28        2.64148   0.00001  -0.00214  -0.00003  -0.00217   2.63931
   D29        2.10085  -0.00009   0.00422  -0.00353   0.00069   2.10154
   D30       -2.98530   0.00015  -0.00302   0.00099  -0.00206  -2.98737
   D31        0.15419  -0.00014   0.00967  -0.00578   0.00385   0.15803
   D32       -2.96324   0.00036   0.02476   0.00536   0.02987  -2.93336
   D33       -1.82295  -0.00016   0.00787  -0.00490   0.00301  -1.81995
   D34        1.34281   0.00034   0.02297   0.00625   0.02903   1.37184
   D35       -1.32857   0.00023   0.01545   0.00569   0.02138  -1.30719
   D36       -0.95210   0.00042   0.00100   0.00842   0.00924  -0.94286
   D37       -2.68542  -0.00005   0.00295   0.00032   0.00308  -2.68234
   D38        2.16201  -0.00016  -0.01618  -0.00427  -0.02038   2.14163
   D39        1.71287  -0.00001   0.00207  -0.00184   0.00029   1.71316
         Item               Value     Threshold  Converged?
 Maximum Force            0.001235     0.000450     NO 
 RMS     Force            0.000258     0.000300     YES
 Maximum Displacement     0.027027     0.001800     NO 
 RMS     Displacement     0.006640     0.001200     NO 
 Predicted change in Energy=-3.617218D-05
 GradGradGradGradGradGradGradGradGradGradGradGradGradGradGradGradGradGrad

                          Input orientation:                          
 ---------------------------------------------------------------------
 Center     Atomic      Atomic             Coordinates (Angstroms)
 Number     Number       Type             X           Y           Z
 ---------------------------------------------------------------------
      1         13           0       -0.815826    1.345936    0.786767
      2          8           0        0.876588    1.527847    0.614529
      3          8           0       -1.740249    1.280635   -0.690692
      4          8           0       -1.242589    0.046205    1.901946
      5         13           0       -0.732848   -1.298300    0.957899
      6         13           0       -1.044993   -0.141399   -1.423921
      7         13           0        1.601398    0.236454   -0.368316
      8          8           0       -1.482277   -1.607643   -0.554262
      9          8           0        0.623347   -0.083627   -1.800802
     10          8           0        1.042747   -1.375783    0.780202
     11          8           0        3.296016   -0.059334   -0.232064
     12          1           0        3.941774    0.637402   -0.353370
     13          1           0        1.652026   -1.354762    1.527852
 ---------------------------------------------------------------------
                    Distance matrix (angstroms):
                    1          2          3          4          5
     1  Al   0.000000
     2  O    1.710854   0.000000
     3  O    1.744049   2.934715   0.000000
     4  O    1.764951   2.888532   2.914319   0.000000
     5  Al   2.651067   3.270366   3.222362   1.720103   0.000000
     6  Al   2.674289   3.261002   1.744472   3.337009   2.666256
     7  Al   2.899679   1.777366   3.515799   3.643973   3.092413
     8  O    3.311517   4.094095   2.902984   2.970795   1.715800
     9  O    3.287914   2.914585   2.946207   4.148363   3.305318
    10  O    3.295768   2.913095   4.118877   2.916011   1.786146
    11  O    4.463187   3.014879   5.231617   5.016380   4.379816
    12  H    4.943348   3.335429   5.728256   5.684504   5.226706
    13  H    3.732729   3.121682   4.834747   3.237506   2.452683
                    6          7          8          9         10
     6  Al   0.000000
     7  Al   2.874101   0.000000
     8  O    1.759942   3.597822   0.000000
     9  O    1.711355   1.763817   2.882731   0.000000
    10  O    3.277273   2.056816   2.865362   2.916701   0.000000
    11  O    4.502401   1.725626   5.033205   3.099143   2.799096
    12  H    5.159501   2.374520   5.873748   3.691463   3.707055
    13  H    4.178412   2.475880   3.771340   3.708625   0.964699
                   11         12         13
    11  O    0.000000
    12  H    0.957685   0.000000
    13  H    2.734618   3.570806   0.000000
 Stoichiometry    Al4H2O7
 Framework group  C1[X(Al4H2O7)]
 Deg. of freedom    33
 Full point group                 C1      NOp   1
 Largest Abelian subgroup         C1      NOp   1
 Largest concise Abelian subgroup C1      NOp   1
                         Standard orientation:                         
 ---------------------------------------------------------------------
 Center     Atomic      Atomic             Coordinates (Angstroms)
 Number     Number       Type             X           Y           Z
 ---------------------------------------------------------------------
      1         13           0        0.882473   -0.025562    1.545259
      2          8           0       -0.823055   -0.095689    1.660490
      3          8           0        1.661955   -1.386448    0.782301
      4          8           0        1.450436    1.517630    0.904145
      5         13           0        0.889776    1.360756   -0.714436
      6         13           0        0.939142   -1.303565   -0.803213
      7         13           0       -1.602909   -0.290285    0.075248
      8          8           0        1.498581    0.099773   -1.706025
      9          8           0       -0.758670   -1.498563   -0.893449
     10          8           0       -0.891839    1.414399   -0.829697
[...]
 ! A35   A(5,7,9)               80.2126         -DE/DX =    0.0                 !
 ! A36   A(5,7,11)             131.4709         -DE/DX =    0.0                 !
 ! A37   A(6,7,11)             155.0662         -DE/DX =    0.0                 !
 ! A38   A(9,7,11)             123.7718         -DE/DX =    0.0                 !
 ! A39   A(5,10,13)            121.0692         -DE/DX =    0.0                 !
 ! A40   A(7,11,12)            119.6767         -DE/DX =    0.0001              !
 ! D1    D(2,1,5,8)           -111.3096         -DE/DX =    0.0                 !
 ! D2    D(2,1,5,10)            -0.3918         -DE/DX =    0.0                 !
 ! D3    D(3,1,5,8)              5.477          -DE/DX =    0.0                 !
 ! D4    D(3,1,5,10)           116.3948         -DE/DX =    0.0                 !
 ! D5    D(2,1,6,8)            112.6684         -DE/DX =    0.0                 !
 ! D6    D(2,1,6,9)              0.0853         -DE/DX =    0.0                 !
 ! D7    D(4,1,6,8)             -0.1352         -DE/DX =    0.0                 !
 ! D8    D(4,1,6,9)           -112.7184         -DE/DX =    0.0                 !
 ! D9    D(3,1,7,9)             -8.9667         -DE/DX =    0.0                 !
 ! D10   D(3,1,7,11)           160.4142         -DE/DX =    0.0                 !
 ! D11   D(4,1,7,9)            104.6843         -DE/DX =    0.0                 !
 ! D12   D(4,1,7,11)           -85.9348         -DE/DX =    0.0                 !
 ! D13   D(4,5,6,3)             -5.3396         -DE/DX =    0.0                 !
 ! D14   D(4,5,6,9)            111.7785         -DE/DX =    0.0                 !
 ! D15   D(10,5,6,3)          -117.9023         -DE/DX =    0.0                 !
 ! D16   D(10,5,6,9)            -0.7842         -DE/DX =    0.0                 !
 ! D17   D(4,5,7,2)             -3.1396         -DE/DX =    0.0                 !
 ! D18   D(4,5,7,9)           -117.0244         -DE/DX =    0.0                 !
 ! D19   D(4,5,7,11)           116.0785         -DE/DX =    0.0                 !
 ! D20   D(8,5,7,2)            117.2253         -DE/DX =    0.0                 !
 ! D21   D(8,5,7,9)              3.3405         -DE/DX =    0.0                 !
 ! D22   D(8,5,7,11)          -123.5566         -DE/DX =    0.0                 !
 ! D23   D(10,5,7,2)          -123.8257         -DE/DX =    0.0                 !
 ! D24   D(10,5,7,9)           122.2895         -DE/DX =    0.0                 !
 ! D25   D(10,5,7,11)           -4.6076         -DE/DX =    0.0                 !
 ! D26   D(1,5,10,13)           88.4332         -DE/DX =    0.0                 !
 ! D27   D(4,5,10,13)           50.4399         -DE/DX =    0.0                 !
 ! D28   D(6,5,10,13)          149.1187         -DE/DX =    0.0                 !
 ! D29   D(7,5,10,13)          118.1795         -DE/DX =    0.0                 !
 ! D30   D(8,5,10,13)         -173.1273         -DE/DX =    0.0                 !
 ! D31   D(3,6,7,2)              8.9971         -DE/DX =    0.0                 !
 ! D32   D(3,6,7,11)          -161.0912         -DE/DX =    0.0                 !
 ! D33   D(8,6,7,2)           -104.2365         -DE/DX =    0.0                 !
 ! D34   D(8,6,7,11)            85.6752         -DE/DX =    0.0                 !
 ! D35   D(1,7,11,12)          -47.2007         -DE/DX =    0.0                 !
 ! D36   D(2,7,11,12)          -29.3262         -DE/DX =    0.0                 !
 ! D37   D(5,7,11,12)         -131.4301         -DE/DX =    0.0                 !
 ! D38   D(6,7,11,12)          139.3995         -DE/DX =    0.0                 !
 ! D39   D(9,7,11,12)          120.021          -DE/DX =    0.0                 !
 --------------------------------------------------------------------------------
 GradGradGradGradGradGradGradGradGradGradGradGradGradGradGradGradGradGrad


 ----------------------------------------------------------------------

 Electric dipole moment (input orientation):
 (Debye = 10**-18 statcoulomb cm , SI units = C m)
                  (au)            (Debye)         (10**-30 SI)
   Tot        0.139356D+01      0.354206D+01      0.118151D+02
   x         -0.786179D+00     -0.199827D+01     -0.666550D+01
   y         -0.321286D+00     -0.816627D+00     -0.272397D+01
   z          0.110485D+01      0.280825D+01      0.936731D+01

 Dipole polarizability, Alpha (input orientation).
 (esu units = cm**3 , SI units = C**2 m**2 J**-1)
 Alpha(0;0):
               (au)            (10**-24 esu)      (10**-40 SI)
   iso        0.905214D+02      0.134139D+02      0.149250D+02
   aniso      0.731080D+01      0.108335D+01      0.120539D+01
   xx         0.953058D+02      0.141229D+02      0.157138D+02
   yx         0.552675D+00      0.818980D-01      0.911238D-01
   yy         0.876585D+02      0.129897D+02      0.144529D+02
   zx        -0.109391D-01     -0.162100D-02     -0.180361D-02
   zy        -0.347879D+00     -0.515504D-01     -0.573576D-01
   zz         0.885998D+02      0.131291D+02      0.146081D+02

 ----------------------------------------------------------------------

 Dipole orientation:
    13         -0.56183873          2.92192979          1.41133132
     8          1.83818640          2.91116909         -0.75527693
     8         -3.58490459          2.29322955          0.25942459
     8          0.16181414          1.10374073          4.11301421
    13          0.05680449         -1.85882285          2.78110205
    13         -3.14918281         -0.75061107         -0.92896419
    13          2.03480656         -0.01142836         -2.40257579
     8         -2.70555004         -2.97356842          1.50672837
     8         -0.98397277         -1.09719887         -3.30279065
     8          2.62371019         -2.37125803          0.63673853
     8          4.77091896         -0.68935710         -4.04277465
     1          5.77965247          0.66756958         -4.69231616
     1          4.34393967         -2.01736075          1.13169125

 Electric dipole moment (dipole orientation):
 (Debye = 10**-18 statcoulomb cm , SI units = C m)
                  (au)            (Debye)         (10**-30 SI)
   Tot        0.139356D+01      0.354206D+01      0.118151D+02
   x          0.000000D+00      0.000000D+00      0.000000D+00
   y          0.000000D+00      0.000000D+00      0.000000D+00
   z          0.139356D+01      0.354206D+01      0.118151D+02

 Dipole polarizability, Alpha (dipole orientation).
 (esu units = cm**3 , SI units = C**2 m**2 J**-1)
 Alpha(0;0):
               (au)            (10**-24 esu)      (10**-40 SI)
   iso        0.905214D+02      0.134139D+02      0.149250D+02
   aniso      0.731080D+01      0.108335D+01      0.120539D+01
   xx         0.930836D+02      0.137936D+02      0.153474D+02
   yx        -0.761353D-01     -0.112821D-01     -0.125530D-01
   yy         0.875157D+02      0.129685D+02      0.144294D+02
   zx        -0.314792D+01     -0.466474D+00     -0.519022D+00
   zy        -0.553672D-01     -0.820457D-02     -0.912882D-02
   zz         0.909648D+02      0.134796D+02      0.149981D+02

 ----------------------------------------------------------------------
 Unable to Open any file for archive entry.
 1\1\GINC-NODE167\Freq\RM062X\Aug-CC-pVDZ\Al4H2O7\XIONG\02-Jul-2025\0\\
 #N Geom=AllCheck Guess=TCheck SCRF=Check GenChk RM062X/Aug-CC-pVDZ Fre
 q\\Title Card Required\\0,1\Al,-0.7780421056,1.349759914,0.7808725094\
 O,0.9137609408,1.5164270814,0.5870621985\O,-1.7257660116,1.2835229638,
 -0.6816063145\O,-1.1998330006,0.0587479662,1.9085688756\Al,-0.73417687
 44,-1.2959654354,0.9569800965\Al,-1.0644908846,-0.1511945199,-1.421467
 9642\Al,1.6033174638,0.2091339568,-0.4019224671\O,-1.5132092758,-1.606
 8485431,-0.5383460826\O,0.5998671514,-0.1226747414,-1.8132887365\O,1.0
 428773835,-1.3960227518,0.7611170224\O,3.3098581846,-0.0439076181,-0.3
 559409814\H,3.8907140053,0.6933777485,-0.1617615111\H,1.6302350233,-1.
 3407270212,1.525501355\\Version=ES64L-G16RevC.01\State=1-A\HF=-1497.91
 62919\RMSD=2.741e-09\RMSF=5.268e-05\ZeroPoint=0.0537467\Thermal=0.0655
 927\ETot=-1497.8506993\HTot=-1497.8497551\GTot=-1497.899523\Dipole=-0.
 7861786,-0.3212857,1.1048506\DipoleDeriv=1.5197513,0.0738646,0.0123383
 ,0.0825096,1.4477288,-0.0593599,0.0274844,-0.0769608,1.5347926,-1.2455
 015,-0.0069993,0.0772612,0.0950074,-1.0419887,-0.1665914,0.1396616,-0.
 1696112,-0.9080454,-0.9525194,0.1237305,-0.1073493,0.1099376,-1.014549
 3,-0.0819378,-0.1102273,-0.079959,-1.0475112,-0.8351093,-0.025315,0.10
 03799,-0.003397,-1.098278,0.0625656,0.1096238,0.078304,-1.0521211,1.64
 33389,-0.0213854,0.0493373,-0.0373365,1.5126312,0.0263707,0.0141373,0.
 0374203,1.5108846,1.4920483,0.023843,-0.0797337,0.0139589,1.5577569,-0
 .0150551,-0.0931124,0.0031894,1.4517369,2.1172109,0.0411949,-0.0326481
 ,-0.0490732,1.4986348,0.0039253,-0.0302157,0.021065,1.5207228,-0.85237
 33,-0.1274749,-0.0302196,-0.1227053,-1.0676136,0.1039054,-0.0570361,0.
 082408,-1.0304712,-1.2477603,-0.0393419,-0.0306939,-0.0635498,-0.78557
 78,-0.067745,-0.0972639,-0.0595164,-1.1002839,-1.0487315,0.050165,0.01
 12831,-0.0351828,-0.8942567,0.2188292,0.0602557,0.1890487,-0.7127173,-
 1.2838888,-0.004145,0.0475996,0.0549681,-0.6247831,0.0322145,0.0191254
 ,0.0259653,-0.6997035,0.353463,-0.0369336,-0.015299,-0.0046941,0.19882
 16,-0.016632,-0.0090462,-0.0152102,0.2641017,0.3400716,-0.0512028,-0.0
 022556,-0.040443,0.3114738,-0.0404895,0.0266134,-0.0361433,0.2686152\P
 olar=95.3057562,0.552675,87.6585476,-0.0109391,-0.3478794,88.5997502\Q
 uadrupole=-6.0483836,3.2793091,2.7690744,1.6235716,4.9906264,-3.682442
 3\PG=C01 [X(Al4H2O7)]\NImag=0\\0.34956899,0.04246883,0.21707067,0.0271
 1812,-0.04090324,0.27955460,-0.23671688,-0.02394389,0.02306945,0.30589
 366,-0.02304500,-0.03074661,-0.00008304,-0.02115473,0.12880572,0.02454
 224,-0.00101040,-0.02802566,-0.06142358,0.06436707,0.09786110,-0.07869
 489,0.00109830,-0.07646982,-0.01169045,0.00073928,-0.01015120,0.134026
 35,-0.00179592,-0.03031346,-0.00738972,-0.00748050,0.01179231,-0.00008
 805,-0.05767127,0.17476008,-0.08070198,-0.00565630,-0.14636439,-0.0111
 0672,0.00443149,0.00509621,0.05637007,0.06889965,0.20993143,-0.0355954
 0,-0.02387221,0.02483004,-0.00662635,-0.00958827,0.01133791,0.00653478
 ,0.00176317,-0.00773935,0.07325876,-0.02708086,-0.10620773,0.06856002,
 -0.01398623,0.00545135,0.01340676,-0.00026253,0.00817507,0.01663038,-0
 .01437874,0.26415679,0.02558152,0.06310463,-0.09069824,0.00581998,0.00
 520233,0.00300160,-0.00108488,0.00827211,-0.01170542,-0.06034710,0.015
 56702,0.18560657,0.02048007,0.00452089,-0.00122289,-0.00923736,0.01079
 094,0.00174336,-0.00469181,-0.00758197,0.00279062,-0.03841174,0.043365
 11,0.03033713,0.26699720,0.00209034,-0.05258680,0.00555806,0.00966650,
 0.00268848,-0.00542665,-0.00264667,-0.00150987,-0.01197049,0.04113962,
 -0.15410995,-0.08192232,-0.03524937,0.24918548,-0.00090063,0.00043272,
 0.02509812,0.00340660,-0.00053276,-0.00939497,-0.00004044,-0.01168619,
 -0.01180381,0.03114286,-0.08721945,-0.09122280,0.04949180,0.09793965,0
 .32744923,0.02085194,-0.00464934,-0.00434648,-0.00708728,0.00872843,0.
 01035740,-0.05331348,0.05694075,0.02643827,-0.00583032,0.00020104,-0.0
 0401710,0.01877826,0.00504825,-0.00842434,0.32600340,-0.00677535,0.000
 21020,-0.03675435,0.00939947,-0.00496067,0.00440312,0.05397530,-0.1422
 8957,-0.05970692,0.00020787,-0.01876276,0.00235950,0.00790679,0.011414
 72,0.03010933,-0.01515559,0.30325114,-0.00593125,-0.02832503,-0.026069
 74,0.00737026,-0.00036208,-0.00377210,0.02245042,-0.05787077,-0.059937
 34,0.00158075,0.00179448,0.00610168,-0.01104581,0.02519419,-0.03767759
 ,-0.07415123,-0.00172569,0.22240283,-0.01830553,0.01181242,0.01471273,
 -0.05249676,0.03856378,0.02882024,0.00500233,-0.00255462,-0.00197547,0
 .00168646,0.00102891,-0.00367158,-0.00792101,-0.01112724,0.01122150,-0
 .02816159,-0.00522872,-0.01040498,0.43360100,0.02372999,0.01066935,-0.
 00602591,0.03420479,-0.09762395,-0.05565934,-0.00618194,-0.00805842,-0
 .00671935,-0.00141880,-0.01728764,0.00249916,-0.02813974,0.01183939,0.
 00536788,-0.00440737,0.01359369,0.00114376,-0.04343929,0.16467482,0.01
 851534,-0.00223260,0.00893845,0.02835371,-0.05900688,-0.06727852,0.001
 12345,-0.00743775,-0.01452707,-0.00827609,-0.00002290,-0.00113248,0.02
 363737,0.00387294,0.01068107,-0.02326609,-0.00072094,0.01432582,0.0452
 9057,0.07820982,0.23055246,-0.00512061,0.00124203,-0.00104106,0.002794
 35,-0.00271352,-0.00166007,0.00796513,0.00585006,0.00208145,0.00662113
 ,0.00087419,0.00026327,-0.06489139,-0.01983702,-0.08195271,-0.03807394
 ,-0.03339731,0.01540310,0.00407068,0.00646102,0.00294949,0.10319270,0.
 00632705,0.00079562,0.00975547,-0.00334755,0.00182537,-0.00174776,-0.0
 0233013,-0.01860171,-0.00168503,-0.00181837,0.00555866,-0.01017772,-0.
 01844459,-0.03659180,-0.02844133,-0.03695951,-0.13211231,0.05842511,0.
 00427367,-0.00508778,0.00627356,0.05730105,0.17526795,0.00096130,0.009
 62958,-0.01425037,-0.00130568,-0.00104496,0.00601231,0.00249562,0.0053
 7703,0.01351126,-0.00534775,-0.01774992,-0.00524166,-0.08344492,-0.033
 12383,-0.18685950,0.01924795,0.06322116,-0.06682246,-0.00249750,0.0035
 1556,-0.01457520,0.06381638,-0.03430262,0.25587505,-0.01213676,-0.0026
 2205,-0.00919326,0.01223595,-0.00372111,-0.00617510,-0.00583942,0.0091
 6670,0.01410823,0.00421606,0.00038527,0.00313496,-0.01256241,0.0001567
 5,-0.00919450,-0.23108361,-0.00390561,0.05090314,-0.07808810,-0.017225
 04,-0.06491395,-0.00616986,-0.00926436,0.01526434,0.33077896,-0.004784
 98,-0.00432466,0.00635438,0.00034338,-0.00124641,-0.01409531,0.0100882
 7,0.00231963,-0.00614971,0.00080388,0.00616558,-0.00039878,0.00073057,
 -0.00565203,-0.00809251,-0.00445789,-0.02295288,-0.00037325,-0.0163168
 5,-0.02848998,-0.02457643,-0.01197303,-0.00043140,0.01093491,0.0238937
 4,0.04970225,-0.01019413,0.00135346,0.00041438,0.00004647,-0.01062208,
 -0.01088636,0.00642622,-0.00050452,0.00912195,0.00272291,0.00027695,0.
 00024384,-0.00826232,-0.00293899,0.00302393,0.04846947,0.00068922,-0.0
 4213828,-0.06775047,-0.02626482,-0.12378341,0.00859319,0.00331167,0.00
 744890,0.02343762,0.02889413,0.16570324,-0.00654433,-0.00758831,0.0047
 7895,0.00982809,-0.00241633,-0.00137204,0.00187274,0.00265107,-0.00139
 981,-0.00711239,0.01196685,0.00171872,-0.15946820,0.01148711,0.0198007
 7,-0.00482622,-0.00636108,0.00500083,-0.02569866,0.01399583,-0.0139489
 3,-0.00788558,0.00443954,-0.00945426,0.00799978,0.00243295,-0.00198430
 ,0.41357128,-0.00927333,-0.00248589,0.00010225,0.00607163,-0.01659428,
 0.00190748,0.00250113,0.00262946,0.00143986,0.00807959,0.00450140,-0.0
 0350517,0.01801247,-0.02237350,0.00233867,-0.00418860,-0.00622062,0.00
 209320,-0.00210967,-0.01847465,-0.00539145,-0.00259680,0.00731389,-0.0
 0509977,0.00433538,0.00200499,0.00464032,0.00516025,0.06622568,0.00365
 424,0.00393083,-0.00765640,-0.00198776,0.00250468,0.00561099,-0.001159
 41,0.00144543,0.00447725,0.00852054,-0.01060997,0.00636522,-0.00598251
 ,0.00240910,-0.02989894,0.00625444,-0.00246245,-0.00286321,-0.00102425
 ,-0.00016293,-0.01561885,-0.00981816,-0.00003972,0.00112745,-0.0066818
 7,0.00721589,-0.01003570,0.23848164,0.01156469,0.38346577,0.00370094,0
 .00017727,-0.00084532,-0.00953503,0.00543573,0.00390076,-0.00189869,0.
 00038671,-0.00010980,-0.00157625,-0.00025059,0.00111215,0.00377648,0.0
 0047692,-0.00069291,0.00362403,0.00033518,-0.00039552,-0.22502314,0.03
 520288,-0.00544952,-0.00159228,-0.00088415,0.00018129,-0.00882065,-0.0
 0053360,-0.00344573,-0.00898748,-0.00614067,0.00489804,0.46508141,-0.0
 0391813,-0.00264625,0.00024719,0.01276405,0.00052040,-0.00390730,0.001
 08368,0.00159031,0.00131847,0.00026296,0.00337968,-0.00050756,0.004250
 45,-0.00300939,-0.00002357,0.00017867,-0.00185829,-0.00065042,0.008738
 69,-0.02497999,-0.00124157,-0.00092126,0.00114397,-0.00070134,-0.00300
 644,0.00441922,-0.00101628,-0.01162516,-0.00194825,0.00419587,0.235074
 31,0.34870261,-0.00221603,-0.00078684,-0.00135458,0.00732938,-0.003038
 37,0.00298597,0.00011864,0.00114459,0.00220692,0.00107633,0.00017550,0
 .00039142,-0.00280848,-0.00004974,-0.00166231,0.00297287,-0.00032105,-
 0.00273678,-0.00819021,0.00154133,-0.01893773,-0.00030062,-0.00079819,
 0.00212003,-0.00930677,-0.00086395,0.00185629,0.00477387,0.00197379,0.
 00176208,0.07510077,0.08902618,0.03575988,-0.00151025,-0.00041986,0.00
 012959,0.00398914,-0.00006692,-0.00089119,0.00059118,0.00030634,0.0004
 4635,0.00045240,0.00071659,-0.00028421,0.00011413,-0.00073729,0.000021
 26,-0.00028306,-0.00044787,-0.00039118,-0.01622522,-0.01380722,-0.0039
 3015,0.00006993,0.00028087,0.00000301,-0.00044152,0.00072463,0.0001453
 6,-0.00108342,-0.00004873,0.00055850,-0.21753214,-0.24448659,-0.066275
 91,0.23192804,0.00026871,0.00020427,0.00005779,-0.00022137,-0.00112409
 ,-0.00015817,0.00000767,-0.00021852,-0.00018097,-0.00005010,-0.0002073
 7,0.00000529,-0.00019176,0.00020933,0.00012231,-0.00022142,0.00018389,
 0.00025306,0.01068407,-0.00087293,0.00076852,0.00013048,0.00001601,-0.
 00010386,0.00169930,-0.00017331,0.00055501,0.00028493,0.00050816,-0.00
 027038,-0.27049591,-0.32508355,-0.08568977,0.25826668,0.32672601,0.000
 29798,0.00019222,-0.00003624,-0.00056636,-0.00023659,-0.00072668,-0.00
 017287,-0.00002464,-0.00002685,0.00003942,-0.00034972,-0.00004379,-0.0
 0049462,0.00042283,-0.00007190,0.00006966,0.00023211,-0.00006551,0.000
 82128,-0.00182361,0.00040700,0.00009180,-0.00017620,0.00019234,-0.0012
 5861,0.00032101,-0.00046039,0.00288641,0.00131950,-0.00124589,-0.07224
 230,-0.08463532,-0.02354452,0.07050332,0.08471293,0.02483114,0.0000227
 2,0.00177593,-0.00152006,-0.00135107,-0.00155229,0.00097126,0.00013623
 ,0.00001947,0.00079814,0.00238286,-0.00257901,0.00143713,-0.01296221,-
 0.00046791,-0.01387927,-0.00059812,-0.00055306,-0.00038851,0.00755954,
 0.00102489,-0.00008519,-0.00098025,0.00042649,0.00008023,-0.00008840,-
 0.00095107,0.00179570,-0.21166559,-0.01980265,-0.23571343,-0.00121720,
 0.00160477,-0.00227384,-0.00006919,-0.00016127,0.00002489,0.21883069,0
 .00178864,0.00036129,0.00052109,-0.00231556,0.00121236,-0.00199145,-0.
 00040107,-0.00027530,-0.00065108,-0.00113059,-0.00081307,-0.00049849,0
 .00003022,0.00049595,-0.00031475,-0.00105741,0.00050347,0.00040344,0.0
 0567486,0.00009808,0.01150567,-0.00041989,0.00090355,-0.00055195,0.000
 10747,-0.00134099,0.00162594,-0.02442765,-0.01508640,-0.01972104,0.001
 21591,-0.00023047,-0.00231350,-0.00028063,-0.00016789,0.00004547,0.021
 21571,0.01433943,-0.00072672,0.00027096,0.00045006,0.00099424,-0.00157
 881,-0.00048390,0.00009418,-0.00013717,0.00001987,0.00045954,-0.000459
 15,-0.00166594,0.00526128,0.00003524,0.00233947,0.00039517,0.00067696,
 -0.00074734,-0.00535184,0.00437844,-0.00905155,0.00157393,-0.00039724,
 0.00146183,-0.00012423,0.00082961,-0.00050839,-0.24928184,-0.01338338,
 -0.33548978,-0.00201191,-0.00210436,0.00115333,-0.00003475,-0.00007175
 ,0.00079126,0.24875294,0.01194064,0.34173108\\0.00005435,0.00000504,-0
 .00001452,-0.00005147,0.00004130,0.00000570,-0.00003239,-0.00006160,0.
 00003758,0.00000128,-0.00003122,0.00005837,-0.00016312,0.00008081,-0.0
 0003656,0.00009320,0.00000722,-0.00000410,0.00009207,-0.00007657,-0.00
 011936,0.00002722,-0.00002219,0.00002088,-0.00005464,0.00000500,0.0000
 0506,0.00002121,-0.00002942,-0.00000383,0.00002170,-0.00000571,-0.0000
 2445,-0.00001406,0.00002697,0.00008019,0.00000465,0.00006039,-0.000004
 94\\\@
 The archive entry for this job was punched.


 WE SHOULD BE CAREFUL TO GET OUT OF AN EXPERIENCE ONLY THE WISDOM
 THAT IS IN IT -- AND STOP THERE;
 LEST WE BE LIKE THE CAT THAT SITS DOWN ON A HOT STOVE-LID.
 SHE WILL NEVER SIT DOWN ON A HOT STOVE LID AGAIN;
 BUT ALSO SHE WILL NEVER SIT DOWN ON A COLD ONE ANY MORE.

                                                     -- MARK TWAIN
 Job cpu time:       0 days  1 hours 55 minutes  6.4 seconds.
 Elapsed time:       0 days  0 hours  1 minutes 48.5 seconds.
 File lengths (MBytes):  RWF=    139 Int=      0 D2E=      0 Chk=      8 Scr=      1
 Normal termination of Gaussian 16 at Wed Jul  2 10:48:44 2025.
