 Entering Gaussian System, Link 0=g16
 Initial command:
 /home/g16/g16/l1.exe "/home/xiong/AlLi/Gau-218000.inp" -scrdir="/home/xiong/AlLi/"
 Entering Link 1 = /home/g16/g16/l1.exe PID=    218001.
  
 Copyright (c) 1988-2019, Gaussian, Inc.  All Rights Reserved.
  
 This is part of the Gaussian(R) 16 program.  It is based on
 the Gaussian(R) 09 system (copyright 2009, Gaussian, Inc.),
 the Gaussian(R) 03 system (copyright 2003, Gaussian, Inc.),
 the Gaussian(R) 98 system (copyright 1998, Gaussian, Inc.),
 the Gaussian(R) 94 system (copyright 1995, Gaussian, Inc.),
 the Gaussian 92(TM) system (copyright 1992, Gaussian, Inc.),
 the Gaussian 90(TM) system (copyright 1990, Gaussian, Inc.),
 the Gaussian 88(TM) system (copyright 1988, Gaussian, Inc.),
 the Gaussian 86(TM) system (copyright 1986, Carnegie Mellon
 University), and the Gaussian 82(TM) system (copyright 1983,
 Carnegie Mellon University). Gaussian is a federally registered
 trademark of Gaussian, Inc.
  
 This software contains proprietary and confidential information,
 including trade secrets, belonging to Gaussian, Inc.
  
 This software is provided under written license and may be
 used, copied, transmitted, or stored only in accord with that
 written license.
  
 The following legend is applicable only to US Government
 contracts under FAR:
  
                    RESTRICTED RIGHTS LEGEND
  
 Use, reproduction and disclosure by the US Government is
 subject to restrictions as set forth in subparagraphs (a)
 and (c) of the Commercial Computer Software - Restricted
 Rights clause in FAR 52.227-19.
  
 Gaussian, Inc.
 340 Quinnipiac St., Bldg. 40, Wallingford CT 06492
  
  
 ---------------------------------------------------------------
 Warning -- This program may not be used in any manner that
 competes with the business of Gaussian, Inc. or will provide
 assistance to any competitor of Gaussian, Inc.  The licensee
 of this program is prohibited from giving any competitor of
 Gaussian, Inc. access to this program.  By using this program,
 the user acknowledges that Gaussian, Inc. is engaged in the
 business of creating and licensing software in the field of
 computational chemistry and represents and warrants to the
 licensee that it is not a competitor of Gaussian, Inc. and that
 it will not use this program in any manner prohibited above.
 ---------------------------------------------------------------
  

 Cite this work as:
 Gaussian 16, Revision C.01,
 M. J. Frisch, G. W. Trucks, H. B. Schlegel, G. E. Scuseria, 
 M. A. Robb, J. R. Cheeseman, G. Scalmani, V. Barone, 
 G. A. Petersson, H. Nakatsuji, X. Li, M. Caricato, A. V. Marenich, 
 J. Bloino, B. G. Janesko, R. Gomperts, B. Mennucci, H. P. Hratchian, 
 J. V. Ortiz, A. F. Izmaylov, J. L. Sonnenberg, D. Williams-Young, 
 F. Ding, F. Lipparini, F. Egidi, J. Goings, B. Peng, A. Petrone, 
 T. Henderson, D. Ranasinghe, V. G. Zakrzewski, J. Gao, N. Rega, 
 G. Zheng, W. Liang, M. Hada, M. Ehara, K. Toyota, R. Fukuda, 
 J. Hasegawa, M. Ishida, T. Nakajima, Y. Honda, O. Kitao, H. Nakai, 
 T. Vreven, K. Throssell, J. A. Montgomery, Jr., J. E. Peralta, 
 F. Ogliaro, M. J. Bearpark, J. J. Heyd, E. N. Brothers, K. N. Kudin, 
 V. N. Staroverov, T. A. Keith, R. Kobayashi, J. Normand, 
 K. Raghavachari, A. P. Rendell, J. C. Burant, S. S. Iyengar, 
 J. Tomasi, M. Cossi, J. M. Millam, M. Klene, C. Adamo, R. Cammi, 
 J. W. Ochterski, R. L. Martin, K. Morokuma, O. Farkas, 
 J. B. Foresman, and D. J. Fox, Gaussian, Inc., Wallingford CT, 2019.
 
 ******************************************
 Gaussian 16:  ES64L-G16RevC.01  3-Jul-2019
                 1-Jul-2025 
 ******************************************
 %chk=h2o-ts1-irc.chk
 %mem=50GB
 %nprocshared=64
 Will use up to   64 processors via shared memory.
 ------------------------------------------------
 # m062x/aug-cc-pvdz irc(calcfc,maxpoints=50,LQA)
 ------------------------------------------------
 1/10=4,18=10,26=3,38=1,42=50,44=3,45=2,172=1/1,23;
 2/12=2,17=6,18=5,29=1,40=1/2;
 3/5=16,7=10,11=2,25=1,30=1,71=2,74=-55,140=1/1,2,3;
 4//1;
 5/5=2,38=5/2;
 8/6=4,10=90,11=11/1;
 11/6=1,8=1,9=11,15=111,16=1/1,2,10;
 10/6=1,13=1/2;
 6/7=2,8=2,9=2,10=2,28=1/1;
 7/10=1,25=1/1,2,3,16;
 1/10=4,18=10,26=3,42=50,44=3,45=2/23(2);
 2/29=1/2;
 99/5=20/99;
 2/29=1/2;
 3/5=16,7=10,11=2,25=1,30=1,71=2,74=-55,140=1/1,2,3;
 4/5=5,16=3,69=1/1;
 5/5=2,38=5/2;
 8/6=4,10=90,11=11/1;
 11/6=1,8=1,9=11,15=111,16=1/1,2,10;
 10/6=1,13=1/2;
 7/10=1,25=1/1,2,3,16;
 1/18=10,26=3,42=50,44=3,45=2/23(-8);
 2/29=1/2;
 6/7=2,8=2,9=2,10=2,19=2,28=1/1;
 99/5=20,9=1/99;
 -------------------
 Title Card Required
 -------------------
 Symbolic Z-matrix:
 Charge =  0 Multiplicity = 1
 Al                   0    -0.87741   1.40312   0.75657 
 O                    0     0.81228   1.69765   0.51303 
 O                    0    -1.81808   1.31817  -0.71134 
 O                    0    -1.20003   0.08487   1.86123 
 Al                   0    -0.60177  -1.25981   0.93404 
 Al                   0    -1.12667  -0.11161  -1.43735 
 Al                   0     1.39606   0.29879  -0.37989 
 O                    0    -1.47364  -1.57092  -0.53756 
 O                    0     0.53858   0.04646  -1.88729 
 O                    0     1.1177   -1.23261   0.70981 
 O                    0     3.11007  -0.31481  -0.00879 
 H                    0     3.68642   0.21123   0.55691 
 H                    0     2.41557  -1.01742   0.58463 
 
 IRC-IRC-IRC-IRC-IRC-IRC-IRC-IRC-IRC-IRC-IRC-IRC-IRC-IRC-IRC-IRC-IRC-IRC
 ------------------------------------------------------------------------
 INPUT DATA FOR L123
 ------------------------------------------------------------------------
 GENERAL PARAMETERS:
 Follow reaction path in both directions.
 Maximum points per path      =  50
 Step size                    =   0.100 bohr
 Integration scheme           = LQA                                 
 Initial Hessian              = CalcFC
 Hessian evaluation           = All updating
 Hessian updating method      = Bofill                              
 ------------------------------------------------------------------------
 IRC-IRC-IRC-IRC-IRC-IRC-IRC-IRC-IRC-IRC-IRC-IRC-IRC-IRC-IRC-IRC-IRC-IRC
                          Input orientation:                          
 ---------------------------------------------------------------------
 Center     Atomic      Atomic             Coordinates (Angstroms)
 Number     Number       Type             X           Y           Z
 ---------------------------------------------------------------------
      1         13           0       -0.877414    1.403117    0.756568
      2          8           0        0.812284    1.697653    0.513034
      3          8           0       -1.818083    1.318171   -0.711335
      4          8           0       -1.200030    0.084873    1.861230
      5         13           0       -0.601767   -1.259813    0.934038
      6         13           0       -1.126671   -0.111606   -1.437350
      7         13           0        1.396059    0.298789   -0.379893
      8          8           0       -1.473638   -1.570917   -0.537558
      9          8           0        0.538580    0.046463   -1.887294
     10          8           0        1.117704   -1.232610    0.709810
     11          8           0        3.110070   -0.314813   -0.008792
     12          1           0        3.686424    0.211232    0.556905
     13          1           0        2.415574   -1.017417    0.584627
 ---------------------------------------------------------------------
                    Distance matrix (angstroms):
                    1          2          3          4          5
     1  Al   0.000000
     2  O    1.732380   0.000000
     3  O    1.745513   2.926076   0.000000
     4  O    1.749893   2.910000   2.919094   0.000000
     5  Al   2.683034   3.305056   3.291304   1.739479   0.000000
     6  Al   2.677646   3.291954   1.746256   3.305240   2.686519
     7  Al   2.771239   1.759242   3.388172   3.436287   2.854289
     8  O    3.297745   4.124650   2.914734   2.927574   1.738545
     9  O    3.291740   2.926246   2.924719   4.132272   3.311595
    10  O    3.306015   2.952701   4.140650   2.904035   1.734242
    11  O    4.408751   3.098732   5.238979   4.715262   3.944577
    12  H    4.721130   3.236055   5.756157   5.059117   4.549152
    13  H    4.090516   3.153930   5.005831   3.989656   3.047161
                    6          7          8          9         10
     6  Al   0.000000
     7  Al   2.766009   0.000000
     8  O    1.749172   3.428676   0.000000
     9  O    1.732194   1.752483   2.913198   0.000000
    10  O    3.302145   1.900030   2.895760   2.952348   0.000000
    11  O    4.475717   1.857971   4.782026   3.204973   2.308304
    12  H    5.219881   2.476091   5.567777   3.988757   2.950658
    13  H    4.178083   1.924086   4.085539   3.281057   1.321532
                   11         12         13
    11  O    0.000000
    12  H    0.963805   0.000000
    13  H    1.152443   1.767882   0.000000
 Symmetry turned off by external request.
 Stoichiometry    Al4H2O7
 Framework group  C1[X(Al4H2O7)]
 Deg. of freedom    33
 Full point group                 C1      NOp   1
 Rotational constants (GHZ):           1.0664591           0.7509291           0.7451716
 Standard basis: Aug-CC-pVDZ (5D, 7F)
   287 basis functions,   643 primitive gaussians,   309 cartesian basis functions
    55 alpha electrons       55 beta electrons
       nuclear repulsion energy      1098.9465058642 Hartrees.
 NAtoms=   13 NActive=   13 NUniq=   13 SFac= 1.00D+00 NAtFMM=   60 NAOKFM=F Big=F
 Integral buffers will be    131072 words long.
 Raffenetti 2 integral format.
 Two-electron integral symmetry is turned off.
 One-electron integrals computed using PRISM.
 NBasis=   287 RedAO= T EigKep=  1.05D-04  NBF=   287
 NBsUse=   287 1.00D-06 EigRej= -1.00D+00 NBFU=   287
 ExpMin= 1.53D-02 ExpMax= 6.42D+04 ExpMxC= 2.19D+03 IAcc=3 IRadAn=         5 AccDes= 0.00D+00
 Harris functional with IExCor= 1009 and IRadAn=       5 diagonalized for initial guess.
 HarFok:  IExCor= 1009 AccDes= 0.00D+00 IRadAn=         5 IDoV= 1 UseB2=F ITyADJ=14
 ICtDFT=  3500011 ScaDFX=  1.000000  1.000000  1.000000  1.000000
 FoFCou: FMM=F IPFlag=           0 FMFlag=      100000 FMFlg1=           0
         NFxFlg=           0 DoJE=T BraDBF=F KetDBF=T FulRan=T
         wScrn=  0.000000 ICntrl=       500 IOpCl=  0 I1Cent=   200000004 NGrid=           0
         NMat0=    1 NMatS0=      1 NMatT0=    0 NMatD0=    1 NMtDS0=    0 NMtDT0=    0
 Symmetry not used in FoFCou.
 Requested convergence on RMS density matrix=1.00D-08 within 128 cycles.
 Requested convergence on MAX density matrix=1.00D-06.
 Requested convergence on             energy=1.00D-06.
 No special actions if energy rises.
 SCF Done:  E(RM062X) =  -1497.88143430     A.U. after   13 cycles
            NFock= 13  Conv=0.39D-08     -V/T= 2.0043
 DoSCS=F DFT=T ScalE2(SS,OS)=  1.000000  1.000000
 Range of M.O.s used for correlation:     1   287
 NBasis=   287 NAE=    55 NBE=    55 NFC=     0 NFV=     0
 NROrb=    287 NOA=    55 NOB=    55 NVA=   232 NVB=   232

 **** Warning!!: The largest alpha MO coefficient is  0.27709213D+02

 Symmetrizing basis deriv contribution to polar:
 IMax=3 JMax=2 DiffMx= 0.00D+00
 G2DrvN: will do    14 centers at a time, making    1 passes.
 Calling FoFCou, ICntrl=  3107 FMM=F I1Cent=   0 AccDes= 0.00D+00.
 End of G2Drv F.D. properties file   721 does not exist.
 End of G2Drv F.D. properties file   722 does not exist.
 End of G2Drv F.D. properties file   788 does not exist.
          IDoAtm=1111111111111
          Differentiating once with respect to nuclear coordinates.
 Keep R1 ints in memory in canonical form, NReq=926978362.
          There are    42 degrees of freedom in the 1st order CPHF.  IDoFFX=6 NUNeed=     0.
     36 vectors produced by pass  0 Test12= 3.04D-14 2.38D-09 XBig12= 5.64D-02 5.26D-02.
 AX will form    36 AO Fock derivatives at one time.
     36 vectors produced by pass  1 Test12= 3.04D-14 2.38D-09 XBig12= 1.20D-02 1.79D-02.
     36 vectors produced by pass  2 Test12= 3.04D-14 2.38D-09 XBig12= 8.86D-04 7.16D-03.
     36 vectors produced by pass  3 Test12= 3.04D-14 2.38D-09 XBig12= 3.37D-05 8.43D-04.
     36 vectors produced by pass  4 Test12= 3.04D-14 2.38D-09 XBig12= 4.01D-07 5.90D-05.
     36 vectors produced by pass  5 Test12= 3.04D-14 2.38D-09 XBig12= 3.41D-09 6.34D-06.
     36 vectors produced by pass  6 Test12= 3.04D-14 2.38D-09 XBig12= 2.47D-11 5.21D-07.
     22 vectors produced by pass  7 Test12= 3.04D-14 2.38D-09 XBig12= 1.40D-13 2.94D-08.
 InvSVY:  IOpt=1 It=  1 EMax= 1.78D-15
 Solved reduced A of dimension   274 with    36 vectors.
 End of Minotr F.D. properties file   721 does not exist.
 End of Minotr F.D. properties file   722 does not exist.
 End of Minotr F.D. properties file   788 does not exist.

 **********************************************************************

            Population analysis using the SCF Density.

 **********************************************************************

 Alpha  occ. eigenvalues --  -56.91118 -56.90284 -56.90282 -56.90029 -19.69952
 Alpha  occ. eigenvalues --  -19.62498 -19.61469 -19.61414 -19.61122 -19.60583
 Alpha  occ. eigenvalues --  -19.60528  -4.41931  -4.41142  -4.41137  -4.40428
 Alpha  occ. eigenvalues --   -2.92457  -2.91854  -2.91828  -2.91673  -2.91640
 Alpha  occ. eigenvalues --   -2.91057  -2.91039  -2.91034  -2.91021  -2.90796
 Alpha  occ. eigenvalues --   -2.90605  -2.90479  -1.18695  -1.07241  -1.05163
 Alpha  occ. eigenvalues --   -1.03845  -1.03721  -1.02736  -1.02232  -0.68141
 Alpha  occ. eigenvalues --   -0.56510  -0.51966  -0.51321  -0.50173  -0.49765
 Alpha  occ. eigenvalues --   -0.46510  -0.44490  -0.44203  -0.43910  -0.43773
 Alpha  occ. eigenvalues --   -0.43659  -0.42698  -0.39330  -0.38644  -0.38029
 Alpha  occ. eigenvalues --   -0.37859  -0.37729  -0.35984  -0.35121  -0.35048
 Alpha virt. eigenvalues --   -0.08501  -0.04144  -0.03796  -0.01693   0.00826
 Alpha virt. eigenvalues --    0.01159   0.01375   0.01985   0.02127   0.02348
 Alpha virt. eigenvalues --    0.02497   0.02567   0.03000   0.03826   0.04005
 Alpha virt. eigenvalues --    0.04177   0.04442   0.06166   0.06232   0.07679
 Alpha virt. eigenvalues --    0.08886   0.08988   0.09474   0.10469   0.10911
 Alpha virt. eigenvalues --    0.11588   0.11611   0.11902   0.11979   0.12096
 Alpha virt. eigenvalues --    0.12381   0.13013   0.13207   0.13717   0.14523
 Alpha virt. eigenvalues --    0.15012   0.15605   0.16059   0.16559   0.16939
 Alpha virt. eigenvalues --    0.17237   0.17944   0.18635   0.19609   0.20567
 Alpha virt. eigenvalues --    0.22073   0.22536   0.22707   0.23032   0.24461
 Alpha virt. eigenvalues --    0.24764   0.25223   0.25403   0.25541   0.26142
 Alpha virt. eigenvalues --    0.26402   0.26780   0.27226   0.27420   0.27535
 Alpha virt. eigenvalues --    0.28588   0.28942   0.29249   0.29810   0.31643
 Alpha virt. eigenvalues --    0.31831   0.32351   0.32619   0.33990   0.34140
 Alpha virt. eigenvalues --    0.34749   0.35236   0.36221   0.36795   0.37130
 Alpha virt. eigenvalues --    0.37732   0.37871   0.39291   0.39507   0.39710
 Alpha virt. eigenvalues --    0.40820   0.41171   0.42391   0.42752   0.43557
 Alpha virt. eigenvalues --    0.44935   0.45724   0.46892   0.47541   0.48358
 Alpha virt. eigenvalues --    0.48576   0.49353   0.49637   0.51204   0.51470
 Alpha virt. eigenvalues --    0.51688   0.52026   0.53123   0.53748   0.54525
 Alpha virt. eigenvalues --    0.55865   0.56287   0.56951   0.57498   0.59026
 Alpha virt. eigenvalues --    0.59920   0.60759   0.62244   0.64098   0.65221
 Alpha virt. eigenvalues --    0.65291   0.68713   0.69934   0.71621   0.74609
 Alpha virt. eigenvalues --    0.75079   0.75739   0.80262   0.81141   0.81382
 Alpha virt. eigenvalues --    0.85339   0.85548   0.86142   0.87254   0.91301
 Alpha virt. eigenvalues --    0.93238   0.94402   0.95198   0.96480   0.98482
 Alpha virt. eigenvalues --    1.00341   1.02758   1.03643   1.04547   1.06471
 Alpha virt. eigenvalues --    1.09941   1.10381   1.11314   1.12005   1.12902
 Alpha virt. eigenvalues --    1.13926   1.16003   1.16430   1.16938   1.17802
 Alpha virt. eigenvalues --    1.19144   1.19577   1.19857   1.21180   1.21274
 Alpha virt. eigenvalues --    1.24752   1.25830   1.29946   1.30992   1.32864
 Alpha virt. eigenvalues --    1.37756   1.40744   1.43566   1.46908   1.48822
 Alpha virt. eigenvalues --    1.49277   1.50818   1.51356   1.52971   1.55830
 Alpha virt. eigenvalues --    1.58656   1.62889   1.63732   1.64504   1.67631
 Alpha virt. eigenvalues --    1.68384   1.69915   1.70332   1.76330   1.80442
 Alpha virt. eigenvalues --    1.83089   1.83587   1.85939   1.89084   1.90864
 Alpha virt. eigenvalues --    1.95085   1.98110   2.04025   2.12570   2.14588
 Alpha virt. eigenvalues --    2.17448   2.22450   2.28047   2.34405   2.46185
 Alpha virt. eigenvalues --    2.47355   2.47626   2.51808   2.54889   2.67461
 Alpha virt. eigenvalues --    2.84442   2.99835   3.37833   3.39603   3.41021
 Alpha virt. eigenvalues --    3.41506   3.42362   3.43454   3.43589   3.44897
 Alpha virt. eigenvalues --    3.45433   3.47351   3.47814   3.48204   3.49326
 Alpha virt. eigenvalues --    3.49445   3.50229   3.50321   3.51448   3.51719
 Alpha virt. eigenvalues --    3.52522   3.52887   3.53097   3.54708   3.55493
 Alpha virt. eigenvalues --    3.56536   3.57944   3.58790   3.59652   3.61026
 Alpha virt. eigenvalues --    3.62652   3.63533   3.64158   3.65617   3.69846
 Alpha virt. eigenvalues --    3.83162   3.91249
          Condensed to atoms (all electrons):
               1          2          3          4          5          6
     1  Al  11.627652  -0.036308  -0.004123  -0.009010  -0.192977  -0.194503
     2  O   -0.036308   8.803999   0.067070   0.062952   0.093458   0.097747
     3  O   -0.004123   0.067070   8.776340   0.067552   0.076392  -0.006557
     4  O   -0.009010   0.062952   0.067552   8.784349  -0.017970   0.086379
     5  Al  -0.192977   0.093458   0.076392  -0.017970  11.761380  -0.196903
     6  Al  -0.194503   0.097747  -0.006557   0.086379  -0.196903  11.706037
     7  Al  -0.209764  -0.022195   0.095433   0.076892  -0.346399  -0.269150
     8  O    0.083810  -0.007080   0.065626   0.070148  -0.015079  -0.014812
     9  O    0.096866   0.074215   0.065769  -0.003962   0.070198  -0.020022
    10  O    0.056070   0.072230   0.003567   0.092947  -0.077278   0.058581
    11  O   -0.016850  -0.001086  -0.001011   0.001521   0.050443  -0.029676
    12  H    0.003074  -0.006657   0.000126   0.000762   0.000034  -0.003117
    13  H    0.003047   0.000213  -0.001302   0.004132  -0.025028   0.003226
               7          8          9         10         11         12
     1  Al  -0.209764   0.083810   0.096866   0.056070  -0.016850   0.003074
     2  O   -0.022195  -0.007080   0.074215   0.072230  -0.001086  -0.006657
     3  O    0.095433   0.065626   0.065769   0.003567  -0.001011   0.000126
     4  O    0.076892   0.070148  -0.003962   0.092947   0.001521   0.000762
     5  Al  -0.346399  -0.015079   0.070198  -0.077278   0.050443   0.000034
     6  Al  -0.269150  -0.014812  -0.020022   0.058581  -0.029676  -0.003117
     7  Al  12.552806   0.088344   0.038375  -0.100967  -0.346872   0.030946
     8  O    0.088344   8.782538   0.061881   0.090443   0.004883  -0.000146
     9  O    0.038375   0.061881   8.753993   0.073722  -0.026015   0.000686
    10  O   -0.100967   0.090443   0.073722   8.834333  -0.051088   0.000580
    11  O   -0.346872   0.004883  -0.026015  -0.051088   8.377214   0.317973
    12  H    0.030946  -0.000146   0.000686   0.000580   0.317973   0.489576
    13  H   -0.057721   0.003475  -0.007548   0.161830   0.091200  -0.009188
              13
     1  Al   0.003047
     2  O    0.000213
     3  O   -0.001302
     4  O    0.004132
     5  Al  -0.025028
     6  Al   0.003226
     7  Al  -0.057721
     8  O    0.003475
     9  O   -0.007548
    10  O    0.161830
    11  O    0.091200
    12  H   -0.009188
    13  H    0.276871
 Mulliken charges:
               1
     1  Al   1.793015
     2  O   -1.198558
     3  O   -1.204880
     4  O   -1.216692
     5  Al   1.819728
     6  Al   1.782770
     7  Al   1.470272
     8  O   -1.214030
     9  O   -1.178159
    10  O   -1.214972
    11  O   -0.370636
    12  H    0.175352
    13  H    0.556791
 Sum of Mulliken charges =  -0.00000
 Mulliken charges with hydrogens summed into heavy atoms:
               1
     1  Al   1.793015
     2  O   -1.198558
     3  O   -1.204880
     4  O   -1.216692
     5  Al   1.819728
     6  Al   1.782770
     7  Al   1.470272
     8  O   -1.214030
     9  O   -1.178159
    10  O   -1.214972
    11  O    0.361506
 APT charges:
               1
     1  Al   2.410697
     2  O   -1.545278
     3  O   -1.572014
     4  O   -1.561132
     5  Al   2.357643
     6  Al   2.426312
     7  Al   2.073505
     8  O   -1.553483
     9  O   -1.567924
    10  O   -1.581132
    11  O   -1.379703
    12  H    0.900525
    13  H    0.591985
 Sum of APT charges =  -0.00000
 APT charges with hydrogens summed into heavy atoms:
               1
     1  Al   2.410697
     2  O   -1.545278
     3  O   -1.572014
     4  O   -1.561132
     5  Al   2.357643
     6  Al   2.426312
     7  Al   2.073505
     8  O   -1.553483
     9  O   -1.567924
    10  O   -1.581132
    11  O    0.112807
 Electronic spatial extent (au):  <R**2>=           1820.9783
 Charge=              0.0000 electrons
 Dipole moment (field-independent basis, Debye):
    X=              1.3091    Y=             -0.2026    Z=              1.5617  Tot=              2.0479
 Quadrupole moment (field-independent basis, Debye-Ang):
   XX=            -74.6887   YY=            -78.7796   ZZ=            -79.0691
   XY=              0.8418   XZ=              5.9185   YZ=             -1.0634
 Traceless Quadrupole moment (field-independent basis, Debye-Ang):
   XX=              2.8238   YY=             -1.2671   ZZ=             -1.5567
   XY=              0.8418   XZ=              5.9185   YZ=             -1.0634
 Octapole moment (field-independent basis, Debye-Ang**2):
  XXX=             68.5547  YYY=             -8.8878  ZZZ=            -14.2309  XYY=             -8.5404
  XXY=              8.6830  XXZ=              8.1276  XZZ=            -15.2555  YZZ=            -10.4516
  YYZ=             32.0776  XYZ=             -7.7365
 Hexadecapole moment (field-independent basis, Debye-Ang**3):
 XXXX=           -918.0754 YYYY=           -575.6477 ZZZZ=           -603.1898 XXXY=             66.3952
 XXXZ=             66.6078 YYYX=             -9.7001 YYYZ=             -2.7095 ZZZX=             66.9817
 ZZZY=              3.0809 XXYY=           -288.5603 XXZZ=           -246.8964 YYZZ=           -171.2931
 XXYZ=              8.4156 YYXZ=            -49.6840 ZZXY=             14.3399
 N-N= 1.098946505864D+03 E-N=-5.763066488512D+03  KE= 1.491513567423D+03
  Exact polarizability:       0.000       0.000       0.000       0.000       0.000       0.000
 Approx polarizability:     105.224       1.738     102.162       0.245      -0.007     101.985
 Calling FoFJK, ICntrl=    100127 FMM=F ISym2X=0 I1Cent= 0 IOpClX= 0 NMat=1 NMatS=1 NMatT=0.
 -------------------------------------------------------------------
 Center     Atomic                   Forces (Hartrees/Bohr)
 Number     Number              X              Y              Z
 -------------------------------------------------------------------
      1       13           0.000085451    0.000066240   -0.000043334
      2        8          -0.000007642   -0.000072081   -0.000012994
      3        8          -0.000036710   -0.000005943    0.000011739
      4        8          -0.000046570    0.000008384    0.000037108
      5       13          -0.000011403   -0.000022776    0.000025240
      6       13           0.000087224   -0.000039598   -0.000053867
      7       13          -0.000081852    0.000018702    0.000023021
      8        8          -0.000000770    0.000021916    0.000010531
      9        8          -0.000019067   -0.000015154    0.000040734
     10        8           0.000061315    0.000047655   -0.000041723
     11        8           0.000061751    0.000092143   -0.000007268
     12        1          -0.000009377   -0.000003396   -0.000037777
     13        1          -0.000082352   -0.000096091    0.000048589
 -------------------------------------------------------------------
 Cartesian Forces:  Max     0.000096091 RMS     0.000047487
 IRC-IRC-IRC-IRC-IRC-IRC-IRC-IRC-IRC-IRC-IRC-IRC-IRC-IRC-IRC-IRC-IRC-IRC
          ******** Start new reaction path calculation ********
 Supplied step size of   0.1000 bohr.
    Integration on MW PES will use step size of   0.1119 sqrt(amu)*bohr.
 Point Number:   0          Path Number:   1
 Calculating another point on the path.
 IRC-IRC-IRC-IRC-IRC-IRC-IRC-IRC-IRC-IRC-IRC-IRC-IRC-IRC-IRC-IRC-IRC-IRC
                          Input orientation:                          
 ---------------------------------------------------------------------
 Center     Atomic      Atomic             Coordinates (Angstroms)
 Number     Number       Type             X           Y           Z
 ---------------------------------------------------------------------
      1         13           0       -0.836389    1.364795    0.771026
      2          8           0        0.852583    1.658584    0.527922
      3          8           0       -1.777281    1.279353   -0.696603
      4          8           0       -1.158387    0.045701    1.875709
      5         13           0       -0.560924   -1.298403    0.948782
      6         13           0       -1.085619   -0.149948   -1.422922
      7         13           0        1.440070    0.262031   -0.366621
      8          8           0       -1.431779   -1.609688   -0.522448
      9          8           0        0.579167    0.007412   -1.872135
     10          8           0        1.160713   -1.272544    0.725117
     11          8           0        3.147711   -0.353369    0.005720
     12          1           0        3.725626    0.173595    0.568319
     13          1           0        2.407782   -1.070508    0.611708
 ---------------------------------------------------------------------
                    Distance matrix (angstroms):
                    1          2          3          4          5
     1  Al   0.000000
     2  O    1.731484   0.000000
     3  O    1.745427   2.925656   0.000000
     4  O    1.750433   2.908939   2.919198   0.000000
     5  Al   2.683301   3.304376   3.291146   1.738612   0.000000
     6  Al   2.677680   3.291384   1.746092   3.305229   2.686863
     7  Al   2.773552   1.759463   3.390454   3.439014   2.858184
     8  O    3.297744   4.123492   2.914834   2.926809   1.737758
     9  O    3.291290   2.925987   2.924476   4.131210   3.310972
    10  O    3.308486   2.953869   4.143100   2.905144   1.736298
    11  O    4.405773   3.096492   5.235894   4.711538   3.941628
    12  H    4.719325   3.234378   5.753670   5.057590   4.548192
    13  H    4.059646   3.142230   4.974764   3.944767   2.996460
                    6          7          8          9         10
     6  Al   0.000000
     7  Al   2.768502   0.000000
     8  O    1.749720   3.431491   0.000000
     9  O    1.731493   1.752871   2.912142   0.000000
    10  O    3.304588   1.903904   2.896740   2.953337   0.000000
    11  O    4.472525   1.852942   4.777973   3.202174   2.304468
    12  H    5.217069   2.470972   5.564953   3.985428   2.948675
    13  H    4.146203   1.915530   4.039710   3.267295   1.268409
                   11         12         13
    11  O    0.000000
    12  H    0.963429   0.000000
    13  H    1.195409   1.812840   0.000000
 Symmetry turned off by external request.
 Stoichiometry    Al4H2O7
 Framework group  C1[X(Al4H2O7)]
 Deg. of freedom    33
 Full point group                 C1      NOp   1
 Rotational constants (GHZ):           1.0661769           0.7513831           0.7453827
 Standard basis: Aug-CC-pVDZ (5D, 7F)
   287 basis functions,   643 primitive gaussians,   309 cartesian basis functions
    55 alpha electrons       55 beta electrons
       nuclear repulsion energy      1099.0164285351 Hartrees.
 NAtoms=   13 NActive=   13 NUniq=   13 SFac= 1.00D+00 NAtFMM=   60 NAOKFM=F Big=F
 Integral buffers will be    131072 words long.
 Raffenetti 2 integral format.
 Two-electron integral symmetry is turned off.
 One-electron integrals computed using PRISM.
 NBasis=   287 RedAO= T EigKep=  1.03D-04  NBF=   287
 NBsUse=   287 1.00D-06 EigRej= -1.00D+00 NBFU=   287
 Initial guess from the checkpoint file:  "h2o-ts1-irc.chk"
 B after Tr=     0.077095   -0.073080    0.027690
         Rot=    1.000000    0.000005    0.000035    0.000060 Ang=   0.01 deg.
 ExpMin= 1.53D-02 ExpMax= 6.42D+04 ExpMxC= 2.19D+03 IAcc=3 IRadAn=         5 AccDes= 0.00D+00
 Harris functional with IExCor= 1009 and IRadAn=       5 diagonalized for initial guess.
 HarFok:  IExCor= 1009 AccDes= 0.00D+00 IRadAn=         5 IDoV= 1 UseB2=F ITyADJ=14
 ICtDFT=  3500011 ScaDFX=  1.000000  1.000000  1.000000  1.000000
 FoFCou: FMM=F IPFlag=           0 FMFlag=      100000 FMFlg1=           0
         NFxFlg=           0 DoJE=T BraDBF=F KetDBF=T FulRan=T
         wScrn=  0.000000 ICntrl=       500 IOpCl=  0 I1Cent=   200000004 NGrid=           0
         NMat0=    1 NMatS0=      1 NMatT0=    0 NMatD0=    1 NMtDS0=    0 NMtDT0=    0
 Symmetry not used in FoFCou.
 Requested convergence on RMS density matrix=1.00D-08 within 128 cycles.
 Requested convergence on MAX density matrix=1.00D-06.
 Requested convergence on             energy=1.00D-06.
 No special actions if energy rises.
 SCF Done:  E(RM062X) =  -1497.88162802     A.U. after   11 cycles
            NFock= 11  Conv=0.53D-08     -V/T= 2.0043
 DoSCS=F DFT=T ScalE2(SS,OS)=  1.000000  1.000000
 Range of M.O.s used for correlation:     1   287
 NBasis=   287 NAE=    55 NBE=    55 NFC=     0 NFV=     0
 NROrb=    287 NOA=    55 NOB=    55 NVA=   232 NVB=   232

 **** Warning!!: The largest alpha MO coefficient is  0.29205049D+02

 Symmetrizing basis deriv contribution to polar:
 IMax=3 JMax=2 DiffMx= 0.00D+00
 Calling FoFJK, ICntrl=      2127 FMM=F ISym2X=0 I1Cent= 0 IOpClX= 0 NMat=1 NMatS=1 NMatT=0.
 -------------------------------------------------------------------
 Center     Atomic                   Forces (Hartrees/Bohr)
 Number     Number              X              Y              Z
 -------------------------------------------------------------------
      1       13           0.000075411    0.000399116   -0.000220156
      2        8          -0.000532366   -0.000392725    0.000185888
      3        8          -0.000201412   -0.000160091    0.000101536
      4        8           0.000365747   -0.000400800   -0.000044082
      5       13          -0.000276908    0.000009186    0.000187035
      6       13           0.000106944    0.000268509   -0.000266440
      7       13           0.003431260    0.002101590   -0.001481012
      8        8           0.000561735   -0.000107124    0.000371426
      9        8          -0.000342779   -0.000328692    0.000421095
     10        8           0.001122627   -0.000867650    0.000448880
     11        8          -0.001189752    0.001282675   -0.000872419
     12        1          -0.000058448    0.000088124   -0.000269989
     13        1          -0.003062059   -0.001892117    0.001438239
 -------------------------------------------------------------------
 Cartesian Forces:  Max     0.003431260 RMS     0.001034304
 IRC-IRC-IRC-IRC-IRC-IRC-IRC-IRC-IRC-IRC-IRC-IRC-IRC-IRC-IRC-IRC-IRC-IRC
 Pt  1 Step number   1 out of a maximum of  20
 Point Number:   1          Path Number:   1
   CHANGE IN THE REACTION COORDINATE =    0.11192
   NET REACTION COORDINATE UP TO THIS POINT =    0.11192
  # OF POINTS ALONG THE PATH =   1
  # OF STEPS =   1

 Calculating another point on the path.
 IRC-IRC-IRC-IRC-IRC-IRC-IRC-IRC-IRC-IRC-IRC-IRC-IRC-IRC-IRC-IRC-IRC-IRC
                          Input orientation:                          
 ---------------------------------------------------------------------
 Center     Atomic      Atomic             Coordinates (Angstroms)
 Number     Number       Type             X           Y           Z
 ---------------------------------------------------------------------
      1         13           0       -0.836350    1.365039    0.770899
      2          8           0        0.852002    1.658209    0.528125
      3          8           0       -1.777461    1.279180   -0.696502
      4          8           0       -1.157987    0.045256    1.875640
      5         13           0       -0.561173   -1.298390    0.948898
      6         13           0       -1.085572   -0.149762   -1.423087
      7         13           0        1.442286    0.263213   -0.367448
      8          8           0       -1.431199   -1.609815   -0.522045
      9          8           0        0.578793    0.007073   -1.871719
     10          8           0        1.162155   -1.273497    0.725603
     11          8           0        3.146101   -0.352534    0.005120
     12          1           0        3.725171    0.175706    0.564516
     13          1           0        2.358351   -1.091109    0.627422
 ---------------------------------------------------------------------
                    Distance matrix (angstroms):
                    1          2          3          4          5
     1  Al   0.000000
     2  O    1.730729   0.000000
     3  O    1.745374   2.925313   0.000000
     4  O    1.750923   2.908173   2.919287   0.000000
     5  Al   2.683517   3.303875   3.290983   1.737937   0.000000
     6  Al   2.677743   3.290924   1.745999   3.305280   2.687127
     7  Al   2.775254   1.759687   3.392232   3.440984   2.860982
     8  O    3.297773   4.122601   2.914897   2.926226   1.737125
     9  O    3.290917   2.925772   2.924265   4.130443   3.310534
    10  O    3.310279   2.954673   4.144863   2.905986   1.737913
    11  O    4.404133   3.095078   5.234141   4.709804   3.940715
    12  H    4.718536   3.233301   5.752112   5.057795   4.549006
    13  H    4.032290   3.136510   4.947321   3.900514   2.944475
                    6          7          8          9         10
     6  Al   0.000000
     7  Al   2.770377   0.000000
     8  O    1.750168   3.433519   0.000000
     9  O    1.730889   1.753299   2.911359   0.000000
    10  O    3.306346   1.906492   2.897451   2.954023   0.000000
    11  O    4.470788   1.849577   4.776016   3.200455   2.302891
    12  H    5.215337   2.467342   5.563888   3.982885   2.948760
    13  H    4.117199   1.913930   3.993872   3.258609   1.213997
                   11         12         13
    11  O    0.000000
    12  H    0.962956   0.000000
    13  H    1.246315   1.864664   0.000000
 Symmetry turned off by external request.
 Stoichiometry    Al4H2O7
 Framework group  C1[X(Al4H2O7)]
 Deg. of freedom    33
 Full point group                 C1      NOp   1
 Rotational constants (GHZ):           1.0659200           0.7516814           0.7454792
 Standard basis: Aug-CC-pVDZ (5D, 7F)
   287 basis functions,   643 primitive gaussians,   309 cartesian basis functions
    55 alpha electrons       55 beta electrons
       nuclear repulsion energy      1099.0563955444 Hartrees.
 NAtoms=   13 NActive=   13 NUniq=   13 SFac= 1.00D+00 NAtFMM=   60 NAOKFM=F Big=F
 Integral buffers will be    131072 words long.
 Raffenetti 2 integral format.
 Two-electron integral symmetry is turned off.
 One-electron integrals computed using PRISM.
 NBasis=   287 RedAO= T EigKep=  9.98D-05  NBF=   287
 NBsUse=   287 1.00D-06 EigRej= -1.00D+00 NBFU=   287
 Initial guess from the checkpoint file:  "h2o-ts1-irc.chk"
 B after Tr=    -0.000440   -0.000163    0.000105
         Rot=    1.000000    0.000007    0.000038    0.000068 Ang=   0.01 deg.
 ExpMin= 1.53D-02 ExpMax= 6.42D+04 ExpMxC= 2.19D+03 IAcc=3 IRadAn=         5 AccDes= 0.00D+00
 Harris functional with IExCor= 1009 and IRadAn=       5 diagonalized for initial guess.
 HarFok:  IExCor= 1009 AccDes= 0.00D+00 IRadAn=         5 IDoV= 1 UseB2=F ITyADJ=14
 ICtDFT=  3500011 ScaDFX=  1.000000  1.000000  1.000000  1.000000
 FoFCou: FMM=F IPFlag=           0 FMFlag=      100000 FMFlg1=           0
         NFxFlg=           0 DoJE=T BraDBF=F KetDBF=T FulRan=T
         wScrn=  0.000000 ICntrl=       500 IOpCl=  0 I1Cent=   200000004 NGrid=           0
         NMat0=    1 NMatS0=      1 NMatT0=    0 NMatD0=    1 NMtDS0=    0 NMtDT0=    0
 Symmetry not used in FoFCou.
 Requested convergence on RMS density matrix=1.00D-08 within 128 cycles.
 Requested convergence on MAX density matrix=1.00D-06.
 Requested convergence on             energy=1.00D-06.
 No special actions if energy rises.
 SCF Done:  E(RM062X) =  -1497.88239264     A.U. after   11 cycles
            NFock= 11  Conv=0.55D-08     -V/T= 2.0043
 DoSCS=F DFT=T ScalE2(SS,OS)=  1.000000  1.000000
 Range of M.O.s used for correlation:     1   287
 NBasis=   287 NAE=    55 NBE=    55 NFC=     0 NFV=     0
 NROrb=    287 NOA=    55 NOB=    55 NVA=   232 NVB=   232

 **** Warning!!: The largest alpha MO coefficient is  0.30066015D+02

 Symmetrizing basis deriv contribution to polar:
 IMax=3 JMax=2 DiffMx= 0.00D+00
 Calling FoFJK, ICntrl=      2127 FMM=F ISym2X=0 I1Cent= 0 IOpClX= 0 NMat=1 NMatS=1 NMatT=0.
 -------------------------------------------------------------------
 Center     Atomic                   Forces (Hartrees/Bohr)
 Number     Number              X              Y              Z
 -------------------------------------------------------------------
      1       13           0.000132025    0.000931037   -0.000480517
      2        8          -0.001335628   -0.000808628    0.000479432
      3        8          -0.000369396   -0.000384306    0.000216894
      4        8           0.000899453   -0.001037496   -0.000170006
      5       13          -0.001115561    0.000097595    0.000431410
      6       13           0.000147171    0.000757205   -0.000633553
      7       13           0.008598846    0.004205940   -0.002944539
      8        8           0.001278190   -0.000311010    0.000928277
      9        8          -0.000867222   -0.000763402    0.000911438
     10        8           0.002426620   -0.002240851    0.001092261
     11        8          -0.001915074    0.003608181   -0.002563806
     12        1          -0.000035008    0.000355990   -0.000681131
     13        1          -0.007844415   -0.004410255    0.003413840
 -------------------------------------------------------------------
 Cartesian Forces:  Max     0.008598846 RMS     0.002491611
 IRC-IRC-IRC-IRC-IRC-IRC-IRC-IRC-IRC-IRC-IRC-IRC-IRC-IRC-IRC-IRC-IRC-IRC
 Pt  2 Step number   1 out of a maximum of  20
 Point Number:   2          Path Number:   1
   CHANGE IN THE REACTION COORDINATE =    0.11169
   NET REACTION COORDINATE UP TO THIS POINT =    0.22361
  # OF POINTS ALONG THE PATH =   2
  # OF STEPS =   1

 Calculating another point on the path.
 IRC-IRC-IRC-IRC-IRC-IRC-IRC-IRC-IRC-IRC-IRC-IRC-IRC-IRC-IRC-IRC-IRC-IRC
                          Input orientation:                          
 ---------------------------------------------------------------------
 Center     Atomic      Atomic             Coordinates (Angstroms)
 Number     Number       Type             X           Y           Z
 ---------------------------------------------------------------------
      1         13           0       -0.836318    1.365248    0.770793
      2          8           0        0.851491    1.657912    0.528306
      3          8           0       -1.777594    1.279034   -0.696420
      4          8           0       -1.157645    0.044857    1.875574
      5         13           0       -0.561452   -1.298368    0.948996
      6         13           0       -1.085540   -0.149590   -1.423230
      7         13           0        1.444237    0.264101   -0.368065
      8          8           0       -1.430719   -1.609936   -0.521690
      9          8           0        0.578459    0.006788   -1.871381
     10          8           0        1.163148   -1.274356    0.726020
     11          8           0        3.145354   -0.351261    0.004213
     12          1           0        3.725324    0.178293    0.560476
     13          1           0        2.310315   -1.115050    0.645713
 ---------------------------------------------------------------------
                    Distance matrix (angstroms):
                    1          2          3          4          5
     1  Al   0.000000
     2  O    1.730072   0.000000
     3  O    1.745322   2.924994   0.000000
     4  O    1.751349   2.907525   2.919364   0.000000
     5  Al   2.683683   3.303479   3.290804   1.737310   0.000000
     6  Al   2.677795   3.290538   1.745897   3.305317   2.687344
     7  Al   2.776771   1.759983   3.393833   3.442641   2.863345
     8  O    3.297810   4.121869   2.914961   2.925712   1.736554
     9  O    3.290607   2.925620   2.924060   4.129792   3.310189
    10  O    3.311703   2.955404   4.146215   2.906523   1.739120
    11  O    4.403153   3.094068   5.232988   4.709002   3.940816
    12  H    4.718228   3.232526   5.750959   5.058722   4.550596
    13  H    4.008594   3.135485   4.923816   3.858068   2.893550
                    6          7          8          9         10
     6  Al   0.000000
     7  Al   2.772054   0.000000
     8  O    1.750581   3.435257   0.000000
     9  O    1.730372   1.753779   2.910714   0.000000
    10  O    3.307713   1.908633   2.897850   2.954603   0.000000
    11  O    4.469757   1.846905   4.775068   3.199219   2.302662
    12  H    5.214116   2.464327   5.563598   3.980716   2.949973
    13  H    4.092001   1.918305   3.950073   3.254782   1.160957
                   11         12         13
    11  O    0.000000
    12  H    0.962404   0.000000
    13  H    1.300840   1.918919   0.000000
 Symmetry turned off by external request.
 Stoichiometry    Al4H2O7
 Framework group  C1[X(Al4H2O7)]
 Deg. of freedom    33
 Full point group                 C1      NOp   1
 Rotational constants (GHZ):           1.0656567           0.7518943           0.7455000
 Standard basis: Aug-CC-pVDZ (5D, 7F)
   287 basis functions,   643 primitive gaussians,   309 cartesian basis functions
    55 alpha electrons       55 beta electrons
       nuclear repulsion energy      1099.0814551764 Hartrees.
 NAtoms=   13 NActive=   13 NUniq=   13 SFac= 1.00D+00 NAtFMM=   60 NAOKFM=F Big=F
 Integral buffers will be    131072 words long.
 Raffenetti 2 integral format.
 Two-electron integral symmetry is turned off.
 One-electron integrals computed using PRISM.
 NBasis=   287 RedAO= T EigKep=  9.55D-05  NBF=   287
 NBsUse=   287 1.00D-06 EigRej= -1.00D+00 NBFU=   287
 Initial guess from the checkpoint file:  "h2o-ts1-irc.chk"
 B after Tr=    -0.000421   -0.000184    0.000123
         Rot=    1.000000    0.000007    0.000041    0.000071 Ang=   0.01 deg.
 ExpMin= 1.53D-02 ExpMax= 6.42D+04 ExpMxC= 2.19D+03 IAcc=3 IRadAn=         5 AccDes= 0.00D+00
 Harris functional with IExCor= 1009 and IRadAn=       5 diagonalized for initial guess.
 HarFok:  IExCor= 1009 AccDes= 0.00D+00 IRadAn=         5 IDoV= 1 UseB2=F ITyADJ=14
 ICtDFT=  3500011 ScaDFX=  1.000000  1.000000  1.000000  1.000000
 FoFCou: FMM=F IPFlag=           0 FMFlag=      100000 FMFlg1=           0
         NFxFlg=           0 DoJE=T BraDBF=F KetDBF=T FulRan=T
         wScrn=  0.000000 ICntrl=       500 IOpCl=  0 I1Cent=   200000004 NGrid=           0
         NMat0=    1 NMatS0=      1 NMatT0=    0 NMatD0=    1 NMtDS0=    0 NMtDT0=    0
 Symmetry not used in FoFCou.
 Requested convergence on RMS density matrix=1.00D-08 within 128 cycles.
 Requested convergence on MAX density matrix=1.00D-06.
 Requested convergence on             energy=1.00D-06.
 No special actions if energy rises.
 SCF Done:  E(RM062X) =  -1497.88380737     A.U. after   11 cycles
            NFock= 11  Conv=0.68D-08     -V/T= 2.0043
 DoSCS=F DFT=T ScalE2(SS,OS)=  1.000000  1.000000
 Range of M.O.s used for correlation:     1   287
 NBasis=   287 NAE=    55 NBE=    55 NFC=     0 NFV=     0
 NROrb=    287 NOA=    55 NOB=    55 NVA=   232 NVB=   232

 **** Warning!!: The largest alpha MO coefficient is  0.30141815D+02

 Symmetrizing basis deriv contribution to polar:
 IMax=3 JMax=2 DiffMx= 0.00D+00
 Calling FoFJK, ICntrl=      2127 FMM=F ISym2X=0 I1Cent= 0 IOpClX= 0 NMat=1 NMatS=1 NMatT=0.
 -------------------------------------------------------------------
 Center     Atomic                   Forces (Hartrees/Bohr)
 Number     Number              X              Y              Z
 -------------------------------------------------------------------
      1       13           0.000234823    0.001525293   -0.000771505
      2        8          -0.002215699   -0.001256767    0.000792293
      3        8          -0.000548545   -0.000616557    0.000340353
      4        8           0.001442410   -0.001723113   -0.000286653
      5       13          -0.002219807    0.000179393    0.000717643
      6       13           0.000219420    0.001282394   -0.001048721
      7       13           0.014247157    0.006044666   -0.004198438
      8        8           0.002018821   -0.000529575    0.001525184
      9        8          -0.001454143   -0.001229004    0.001435962
     10        8           0.001748120   -0.004018500    0.001933199
     11        8          -0.002208583    0.006407815   -0.004561104
     12        1           0.000074749    0.000749915   -0.001165917
     13        1          -0.011338724   -0.006815959    0.005287704
 -------------------------------------------------------------------
 Cartesian Forces:  Max     0.014247157 RMS     0.003884219
 IRC-IRC-IRC-IRC-IRC-IRC-IRC-IRC-IRC-IRC-IRC-IRC-IRC-IRC-IRC-IRC-IRC-IRC
 Pt  3 Step number   1 out of a maximum of  20
 Point Number:   3          Path Number:   1
   CHANGE IN THE REACTION COORDINATE =    0.11186
   NET REACTION COORDINATE UP TO THIS POINT =    0.33547
  # OF POINTS ALONG THE PATH =   3
  # OF STEPS =   1

 Calculating another point on the path.
 IRC-IRC-IRC-IRC-IRC-IRC-IRC-IRC-IRC-IRC-IRC-IRC-IRC-IRC-IRC-IRC-IRC-IRC
                          Input orientation:                          
 ---------------------------------------------------------------------
 Center     Atomic      Atomic             Coordinates (Angstroms)
 Number     Number       Type             X           Y           Z
 ---------------------------------------------------------------------
      1         13           0       -0.836282    1.365476    0.770679
      2          8           0        0.850928    1.657597    0.528506
      3          8           0       -1.777732    1.278876   -0.696333
      4          8           0       -1.157277    0.044420    1.875502
      5         13           0       -0.561808   -1.298342    0.949107
      6         13           0       -1.085507   -0.149397   -1.423387
      7         13           0        1.446401    0.264972   -0.368669
      8          8           0       -1.430207   -1.610072   -0.521305
      9          8           0        0.578091    0.006479   -1.871018
     10          8           0        1.163536   -1.275401    0.726520
     11          8           0        3.144825   -0.349645    0.003071
     12          1           0        3.725863    0.181607    0.555662
     13          1           0        2.264769   -1.141212    0.665865
 ---------------------------------------------------------------------
                    Distance matrix (angstroms):
                    1          2          3          4          5
     1  Al   0.000000
     2  O    1.729353   0.000000
     3  O    1.745265   2.924639   0.000000
     4  O    1.751816   2.906824   2.919449   0.000000
     5  Al   2.683859   3.303074   3.290592   1.736606   0.000000
     6  Al   2.677849   3.290120   1.745779   3.305357   2.687575
     7  Al   2.778464   1.760373   3.395644   3.444428   2.865901
     8  O    3.297856   4.121085   2.915036   2.925153   1.735916
     9  O    3.290271   2.925465   2.923830   4.129086   3.309838
    10  O    3.312922   2.956249   4.147276   2.906589   1.739794
    11  O    4.402281   3.093067   5.231904   4.708436   3.941337
    12  H    4.718151   3.231800   5.749874   5.060222   4.552929
    13  H    3.988858   3.138653   4.904511   3.818291   2.845076
                    6          7          8          9         10
     6  Al   0.000000
     7  Al   2.773931   0.000000
     8  O    1.751041   3.437145   0.000000
     9  O    1.729806   1.754376   2.910021   0.000000
    10  O    3.308803   1.911073   2.897684   2.955192   0.000000
    11  O    4.468846   1.844068   4.774365   3.197992   2.303455
    12  H    5.213010   2.461155   5.563724   3.978431   2.952555
    13  H    4.070997   1.928040   3.909227   3.255434   1.111036
                   11         12         13
    11  O    0.000000
    12  H    0.961868   0.000000
    13  H    1.356603   1.974028   0.000000
 Symmetry turned off by external request.
 Stoichiometry    Al4H2O7
 Framework group  C1[X(Al4H2O7)]
 Deg. of freedom    33
 Full point group                 C1      NOp   1
 Rotational constants (GHZ):           1.0653535           0.7520768           0.7454672
 Standard basis: Aug-CC-pVDZ (5D, 7F)
   287 basis functions,   643 primitive gaussians,   309 cartesian basis functions
    55 alpha electrons       55 beta electrons
       nuclear repulsion energy      1099.0972883831 Hartrees.
 NAtoms=   13 NActive=   13 NUniq=   13 SFac= 1.00D+00 NAtFMM=   60 NAOKFM=F Big=F
 Integral buffers will be    131072 words long.
 Raffenetti 2 integral format.
 Two-electron integral symmetry is turned off.
 One-electron integrals computed using PRISM.
 NBasis=   287 RedAO= T EigKep=  9.12D-05  NBF=   287
 NBsUse=   287 1.00D-06 EigRej= -1.00D+00 NBFU=   287
 Initial guess from the checkpoint file:  "h2o-ts1-irc.chk"
 B after Tr=    -0.000397   -0.000198    0.000132
         Rot=    1.000000    0.000008    0.000040    0.000070 Ang=   0.01 deg.
 ExpMin= 1.53D-02 ExpMax= 6.42D+04 ExpMxC= 2.19D+03 IAcc=3 IRadAn=         5 AccDes= 0.00D+00
 Harris functional with IExCor= 1009 and IRadAn=       5 diagonalized for initial guess.
 HarFok:  IExCor= 1009 AccDes= 0.00D+00 IRadAn=         5 IDoV= 1 UseB2=F ITyADJ=14
 ICtDFT=  3500011 ScaDFX=  1.000000  1.000000  1.000000  1.000000
 FoFCou: FMM=F IPFlag=           0 FMFlag=      100000 FMFlg1=           0
         NFxFlg=           0 DoJE=T BraDBF=F KetDBF=T FulRan=T
         wScrn=  0.000000 ICntrl=       500 IOpCl=  0 I1Cent=   200000004 NGrid=           0
         NMat0=    1 NMatS0=      1 NMatT0=    0 NMatD0=    1 NMtDS0=    0 NMtDT0=    0
 Symmetry not used in FoFCou.
 Requested convergence on RMS density matrix=1.00D-08 within 128 cycles.
 Requested convergence on MAX density matrix=1.00D-06.
 Requested convergence on             energy=1.00D-06.
 No special actions if energy rises.
 SCF Done:  E(RM062X) =  -1497.88556409     A.U. after   11 cycles
            NFock= 11  Conv=0.79D-08     -V/T= 2.0043
 DoSCS=F DFT=T ScalE2(SS,OS)=  1.000000  1.000000
 Range of M.O.s used for correlation:     1   287
 NBasis=   287 NAE=    55 NBE=    55 NFC=     0 NFV=     0
 NROrb=    287 NOA=    55 NOB=    55 NVA=   232 NVB=   232

 **** Warning!!: The largest alpha MO coefficient is  0.29750310D+02

 Symmetrizing basis deriv contribution to polar:
 IMax=3 JMax=2 DiffMx= 0.00D+00
 Calling FoFJK, ICntrl=      2127 FMM=F ISym2X=0 I1Cent= 0 IOpClX= 0 NMat=1 NMatS=1 NMatT=0.
 -------------------------------------------------------------------
 Center     Atomic                   Forces (Hartrees/Bohr)
 Number     Number              X              Y              Z
 -------------------------------------------------------------------
      1       13           0.000302532    0.002027710   -0.001030505
      2        8          -0.002972714   -0.001669832    0.001065684
      3        8          -0.000729797   -0.000819284    0.000452881
      4        8           0.001920906   -0.002291417   -0.000375495
      5       13          -0.003422337    0.000212501    0.001030419
      6       13           0.000277101    0.001737848   -0.001391117
      7       13           0.019516843    0.007398195   -0.005121317
      8        8           0.002673789   -0.000716088    0.002018139
      9        8          -0.001939966   -0.001651160    0.001938848
     10        8          -0.002774779   -0.006105963    0.002860025
     11        8          -0.002381259    0.008997152   -0.006373162
     12        1           0.000203068    0.001133523   -0.001631050
     13        1          -0.010673386   -0.008253186    0.006556650
 -------------------------------------------------------------------
 Cartesian Forces:  Max     0.019516843 RMS     0.004908472
 IRC-IRC-IRC-IRC-IRC-IRC-IRC-IRC-IRC-IRC-IRC-IRC-IRC-IRC-IRC-IRC-IRC-IRC
 Pt  4 Step number   1 out of a maximum of  20
 Point Number:   4          Path Number:   1
   CHANGE IN THE REACTION COORDINATE =    0.11188
   NET REACTION COORDINATE UP TO THIS POINT =    0.44735
  # OF POINTS ALONG THE PATH =   4
  # OF STEPS =   1

 Calculating another point on the path.
 IRC-IRC-IRC-IRC-IRC-IRC-IRC-IRC-IRC-IRC-IRC-IRC-IRC-IRC-IRC-IRC-IRC-IRC
                          Input orientation:                          
 ---------------------------------------------------------------------
 Center     Atomic      Atomic             Coordinates (Angstroms)
 Number     Number       Type             X           Y           Z
 ---------------------------------------------------------------------
      1         13           0       -0.836241    1.365761    0.770533
      2          8           0        0.850215    1.657196    0.528759
      3          8           0       -1.777915    1.278673   -0.696220
      4          8           0       -1.156802    0.043873    1.875416
      5         13           0       -0.562331   -1.298317    0.949265
      6         13           0       -1.085467   -0.149151   -1.423580
      7         13           0        1.449250    0.265994   -0.369374
      8          8           0       -1.429551   -1.610248   -0.520824
      9          8           0        0.577632    0.006083   -1.870543
     10          8           0        1.162646   -1.276941    0.727233
     11          8           0        3.144267   -0.347492    0.001571
     12          1           0        3.726968    0.186363    0.549072
     13          1           0        2.225766   -1.170582    0.689103
 ---------------------------------------------------------------------
                    Distance matrix (angstroms):
                    1          2          3          4          5
     1  Al   0.000000
     2  O    1.728445   0.000000
     3  O    1.745192   2.924195   0.000000
     4  O    1.752402   2.905927   2.919558   0.000000
     5  Al   2.684079   3.302600   3.290310   1.735692   0.000000
     6  Al   2.677910   3.289586   1.745629   3.305408   2.687870
     7  Al   2.780709   1.760946   3.398079   3.446727   2.869204
     8  O    3.297916   4.120090   2.915131   2.924461   1.735088
     9  O    3.289839   2.925256   2.923547   4.128183   3.309424
    10  O    3.313804   2.957391   4.147804   2.905635   1.739339
    11  O    4.401247   3.091824   5.230602   4.707829   3.942215
    12  H    4.718358   3.231017   5.748707   5.062678   4.556590
    13  H    3.976877   3.148679   4.893612   3.784707   2.803121
                    6          7          8          9         10
     6  Al   0.000000
     7  Al   2.776416   0.000000
     8  O    1.751619   3.439581   0.000000
     9  O    1.729095   1.755215   2.909132   0.000000
    10  O    3.309368   1.914507   2.896243   2.955814   0.000000
    11  O    4.467778   1.840393   4.773600   3.196473   2.305924
    12  H    5.211857   2.457211   5.564367   3.975595   2.957829
    13  H    4.058450   1.946047   3.875380   3.263843   1.069108
                   11         12         13
    11  O    0.000000
    12  H    0.961405   0.000000
    13  H    1.412027   2.028427   0.000000
 Symmetry turned off by external request.
 Stoichiometry    Al4H2O7
 Framework group  C1[X(Al4H2O7)]
 Deg. of freedom    33
 Full point group                 C1      NOp   1
 Rotational constants (GHZ):           1.0649644           0.7522412           0.7453575
 Standard basis: Aug-CC-pVDZ (5D, 7F)
   287 basis functions,   643 primitive gaussians,   309 cartesian basis functions
    55 alpha electrons       55 beta electrons
       nuclear repulsion energy      1099.0738233177 Hartrees.
 NAtoms=   13 NActive=   13 NUniq=   13 SFac= 1.00D+00 NAtFMM=   60 NAOKFM=F Big=F
 Integral buffers will be    131072 words long.
 Raffenetti 2 integral format.
 Two-electron integral symmetry is turned off.
 One-electron integrals computed using PRISM.
 NBasis=   287 RedAO= T EigKep=  8.72D-05  NBF=   287
 NBsUse=   287 1.00D-06 EigRej= -1.00D+00 NBFU=   287
 Initial guess from the checkpoint file:  "h2o-ts1-irc.chk"
 B after Tr=    -0.000341   -0.000215    0.000145
         Rot=    1.000000    0.000011    0.000037    0.000066 Ang=   0.01 deg.
 ExpMin= 1.53D-02 ExpMax= 6.42D+04 ExpMxC= 2.19D+03 IAcc=3 IRadAn=         5 AccDes= 0.00D+00
 Harris functional with IExCor= 1009 and IRadAn=       5 diagonalized for initial guess.
 HarFok:  IExCor= 1009 AccDes= 0.00D+00 IRadAn=         5 IDoV= 1 UseB2=F ITyADJ=14
 ICtDFT=  3500011 ScaDFX=  1.000000  1.000000  1.000000  1.000000
 FoFCou: FMM=F IPFlag=           0 FMFlag=      100000 FMFlg1=           0
         NFxFlg=           0 DoJE=T BraDBF=F KetDBF=T FulRan=T
         wScrn=  0.000000 ICntrl=       500 IOpCl=  0 I1Cent=   200000004 NGrid=           0
         NMat0=    1 NMatS0=      1 NMatT0=    0 NMatD0=    1 NMtDS0=    0 NMtDT0=    0
 Symmetry not used in FoFCou.
 Requested convergence on RMS density matrix=1.00D-08 within 128 cycles.
 Requested convergence on MAX density matrix=1.00D-06.
 Requested convergence on             energy=1.00D-06.
 No special actions if energy rises.
 SCF Done:  E(RM062X) =  -1497.88729903     A.U. after   11 cycles
            NFock= 11  Conv=0.70D-08     -V/T= 2.0042
 DoSCS=F DFT=T ScalE2(SS,OS)=  1.000000  1.000000
 Range of M.O.s used for correlation:     1   287
 NBasis=   287 NAE=    55 NBE=    55 NFC=     0 NFV=     0
 NROrb=    287 NOA=    55 NOB=    55 NVA=   232 NVB=   232

 **** Warning!!: The largest alpha MO coefficient is  0.27822219D+02

 Symmetrizing basis deriv contribution to polar:
 IMax=3 JMax=2 DiffMx= 0.00D+00
 Calling FoFJK, ICntrl=      2127 FMM=F ISym2X=0 I1Cent= 0 IOpClX= 0 NMat=1 NMatS=1 NMatT=0.
 -------------------------------------------------------------------
 Center     Atomic                   Forces (Hartrees/Bohr)
 Number     Number              X              Y              Z
 -------------------------------------------------------------------
      1       13           0.000281868    0.002314211   -0.001209185
      2        8          -0.003441590   -0.002009767    0.001245509
      3        8          -0.000913732   -0.000957421    0.000539101
      4        8           0.002258800   -0.002591083   -0.000413248
      5       13          -0.004778381    0.000138222    0.001395508
      6       13           0.000296601    0.002032449   -0.001563609
      7       13           0.023767316    0.007953895   -0.005510850
      8        8           0.003142162   -0.000826126    0.002277730
      9        8          -0.002187312   -0.001970197    0.002392471
     10        8          -0.009618525   -0.008087176    0.003607805
     11        8          -0.002364461    0.010993633   -0.007678631
     12        1           0.000346213    0.001451056   -0.002048906
     13        1          -0.006788958   -0.008441695    0.006966307
 -------------------------------------------------------------------
 Cartesian Forces:  Max     0.023767316 RMS     0.005744850
 IRC-IRC-IRC-IRC-IRC-IRC-IRC-IRC-IRC-IRC-IRC-IRC-IRC-IRC-IRC-IRC-IRC-IRC
 Pt  5 Step number   1 out of a maximum of  20
 Point Number:   5          Path Number:   1
   CHANGE IN THE REACTION COORDINATE =    0.11187
   NET REACTION COORDINATE UP TO THIS POINT =    0.55922
  # OF POINTS ALONG THE PATH =   5
  # OF STEPS =   1

 Calculating another point on the path.
 IRC-IRC-IRC-IRC-IRC-IRC-IRC-IRC-IRC-IRC-IRC-IRC-IRC-IRC-IRC-IRC-IRC-IRC
                          Input orientation:                          
 ---------------------------------------------------------------------
 Center     Atomic      Atomic             Coordinates (Angstroms)
 Number     Number       Type             X           Y           Z
 ---------------------------------------------------------------------
      1         13           0       -0.836203    1.366105    0.770348
      2          8           0        0.849329    1.656673    0.529072
      3          8           0       -1.778174    1.278411   -0.696068
      4          8           0       -1.156185    0.043213    1.875318
      5         13           0       -0.563127   -1.298309    0.949502
      6         13           0       -1.085418   -0.148844   -1.423808
      7         13           0        1.453038    0.267180   -0.370196
      8          8           0       -1.428700   -1.610469   -0.520246
      9          8           0        0.577086    0.005577   -1.869900
     10          8           0        1.159850   -1.279152    0.728198
     11          8           0        3.143647   -0.344658   -0.000360
     12          1           0        3.729003    0.193159    0.539829
     13          1           0        2.199002   -1.202221    0.715168
 ---------------------------------------------------------------------
                    Distance matrix (angstroms):
                    1          2          3          4          5
     1  Al   0.000000
     2  O    1.727328   0.000000
     3  O    1.745100   2.923666   0.000000
     4  O    1.753109   2.904775   2.919693   0.000000
     5  Al   2.684356   3.302077   3.289943   1.734513   0.000000
     6  Al   2.677966   3.288903   1.745444   3.305469   2.688244
     7  Al   2.783720   1.761771   3.401398   3.449715   2.873547
     8  O    3.297982   4.118823   2.915248   2.923638   1.734019
     9  O    3.289276   2.924945   2.923224   4.127021   3.308962
    10  O    3.314120   2.958909   4.147487   2.903197   1.737236
    11  O    4.399989   3.090229   5.229023   4.707140   3.943584
    12  H    4.719115   3.230249   5.747539   5.066663   4.562311
    13  H    3.976406   3.166942   4.895206   3.762224   2.773715
                    6          7          8          9         10
     6  Al   0.000000
     7  Al   2.779736   0.000000
     8  O    1.752317   3.442745   0.000000
     9  O    1.728225   1.756372   2.907980   0.000000
    10  O    3.309071   1.919263   2.892918   2.956393   0.000000
    11  O    4.466490   1.835561   4.772726   3.194539   2.310742
    12  H    5.210709   2.452273   5.565855   3.971972   2.967108
    13  H    4.058600   1.973225   3.853977   3.282067   1.042077
                   11         12         13
    11  O    0.000000
    12  H    0.961090   0.000000
    13  H    1.462788   2.078156   0.000000
 Symmetry turned off by external request.
 Stoichiometry    Al4H2O7
 Framework group  C1[X(Al4H2O7)]
 Deg. of freedom    33
 Full point group                 C1      NOp   1
 Rotational constants (GHZ):           1.0644788           0.7523700           0.7451416
 Standard basis: Aug-CC-pVDZ (5D, 7F)
   287 basis functions,   643 primitive gaussians,   309 cartesian basis functions
    55 alpha electrons       55 beta electrons
       nuclear repulsion energy      1098.9742751409 Hartrees.
 NAtoms=   13 NActive=   13 NUniq=   13 SFac= 1.00D+00 NAtFMM=   60 NAOKFM=F Big=F
 Integral buffers will be    131072 words long.
 Raffenetti 2 integral format.
 Two-electron integral symmetry is turned off.
 One-electron integrals computed using PRISM.
 NBasis=   287 RedAO= T EigKep=  8.42D-05  NBF=   287
 NBsUse=   287 1.00D-06 EigRej= -1.00D+00 NBFU=   287
 Initial guess from the checkpoint file:  "h2o-ts1-irc.chk"
 B after Tr=    -0.000235   -0.000221    0.000148
         Rot=    1.000000    0.000015    0.000028    0.000054 Ang=   0.01 deg.
 ExpMin= 1.53D-02 ExpMax= 6.42D+04 ExpMxC= 2.19D+03 IAcc=3 IRadAn=         5 AccDes= 0.00D+00
 Harris functional with IExCor= 1009 and IRadAn=       5 diagonalized for initial guess.
 HarFok:  IExCor= 1009 AccDes= 0.00D+00 IRadAn=         5 IDoV= 1 UseB2=F ITyADJ=14
 ICtDFT=  3500011 ScaDFX=  1.000000  1.000000  1.000000  1.000000
 FoFCou: FMM=F IPFlag=           0 FMFlag=      100000 FMFlg1=           0
         NFxFlg=           0 DoJE=T BraDBF=F KetDBF=T FulRan=T
         wScrn=  0.000000 ICntrl=       500 IOpCl=  0 I1Cent=   200000004 NGrid=           0
         NMat0=    1 NMatS0=      1 NMatT0=    0 NMatD0=    1 NMtDS0=    0 NMtDT0=    0
 Symmetry not used in FoFCou.
 Requested convergence on RMS density matrix=1.00D-08 within 128 cycles.
 Requested convergence on MAX density matrix=1.00D-06.
 Requested convergence on             energy=1.00D-06.
 No special actions if energy rises.
 SCF Done:  E(RM062X) =  -1497.88890185     A.U. after   11 cycles
            NFock= 11  Conv=0.48D-08     -V/T= 2.0042
 DoSCS=F DFT=T ScalE2(SS,OS)=  1.000000  1.000000
 Range of M.O.s used for correlation:     1   287
 NBasis=   287 NAE=    55 NBE=    55 NFC=     0 NFV=     0
 NROrb=    287 NOA=    55 NOB=    55 NVA=   232 NVB=   232

 **** Warning!!: The largest alpha MO coefficient is  0.27807525D+02

 Symmetrizing basis deriv contribution to polar:
 IMax=3 JMax=2 DiffMx= 0.00D+00
 Calling FoFJK, ICntrl=      2127 FMM=F ISym2X=0 I1Cent= 0 IOpClX= 0 NMat=1 NMatS=1 NMatT=0.
 -------------------------------------------------------------------
 Center     Atomic                   Forces (Hartrees/Bohr)
 Number     Number              X              Y              Z
 -------------------------------------------------------------------
      1       13           0.000151363    0.002291032   -0.001271323
      2        8          -0.003485251   -0.002246421    0.001282176
      3        8          -0.001090849   -0.001000826    0.000583972
      4        8           0.002375318   -0.002504723   -0.000374312
      5       13          -0.006331241   -0.000070205    0.001812688
      6       13           0.000273643    0.002094516   -0.001495078
      7       13           0.026239963    0.007579589   -0.005282984
      8        8           0.003317826   -0.000829000    0.002202167
      9        8          -0.002088799   -0.002129552    0.002764392
     10        8          -0.013643629   -0.009312524    0.003875272
     11        8          -0.002033472    0.012125246   -0.008237919
     12        1           0.000476663    0.001628069   -0.002384965
     13        1          -0.004161534   -0.007625201    0.006525916
 -------------------------------------------------------------------
 Cartesian Forces:  Max     0.026239963 RMS     0.006265272
 IRC-IRC-IRC-IRC-IRC-IRC-IRC-IRC-IRC-IRC-IRC-IRC-IRC-IRC-IRC-IRC-IRC-IRC
 Pt  6 Step number   1 out of a maximum of  20
 Point Number:   6          Path Number:   1
   CHANGE IN THE REACTION COORDINATE =    0.11183
   NET REACTION COORDINATE UP TO THIS POINT =    0.67106
  # OF POINTS ALONG THE PATH =   6
  # OF STEPS =   1

 Calculating another point on the path.
 IRC-IRC-IRC-IRC-IRC-IRC-IRC-IRC-IRC-IRC-IRC-IRC-IRC-IRC-IRC-IRC-IRC-IRC
                          Input orientation:                          
 ---------------------------------------------------------------------
 Center     Atomic      Atomic             Coordinates (Angstroms)
 Number     Number       Type             X           Y           Z
 ---------------------------------------------------------------------
      1         13           0       -0.836187    1.366461    0.770142
      2          8           0        0.848394    1.656046    0.529411
      3          8           0       -1.778502    1.278126   -0.695896
      4          8           0       -1.155510    0.042555    1.875230
      5         13           0       -0.564251   -1.298339    0.949828
      6         13           0       -1.085370   -0.148511   -1.424034
      7         13           0        1.457436    0.268365   -0.371024
      8          8           0       -1.427763   -1.610699   -0.519671
      9          8           0        0.576550    0.004997   -1.869106
     10          8           0        1.155931   -1.281806    0.729267
     11          8           0        3.143095   -0.341319   -0.002596
     12          1           0        3.731857    0.201176    0.528716
     13          1           0        2.180755   -1.232669    0.741347
 ---------------------------------------------------------------------
                    Distance matrix (angstroms):
                    1          2          3          4          5
     1  Al   0.000000
     2  O    1.726159   0.000000
     3  O    1.745001   2.923146   0.000000
     4  O    1.753828   2.903483   2.919836   0.000000
     5  Al   2.684660   3.301622   3.289526   1.733192   0.000000
     6  Al   2.677992   3.288132   1.745253   3.305536   2.688659
     7  Al   2.787254   1.762774   3.405356   3.453134   2.878617
     8  O    3.298040   4.117413   2.915370   2.922828   1.732815
     9  O    3.288624   2.924508   2.922935   4.125712   3.308549
    10  O    3.314140   2.960658   4.146713   2.899987   1.734343
    11  O    4.398673   3.088389   5.227368   4.706548   3.945557
    12  H    4.720509   3.229706   5.746612   5.071944   4.569729
    13  H    3.982242   3.188225   4.903618   3.747339   2.753695
                    6          7          8          9         10
     6  Al   0.000000
     7  Al   2.783609   0.000000
     8  O    1.753027   3.446354   0.000000
     9  O    1.727319   1.757718   2.906669   0.000000
    10  O    3.308246   1.924727   2.888510   2.956870   0.000000
    11  O    4.465151   1.830000   4.771943   3.192326   2.317102
    12  H    5.209720   2.446842   5.568095   3.967871   2.979069
    13  H    4.065937   2.003413   3.841156   3.304505   1.026073
                   11         12         13
    11  O    0.000000
    12  H    0.960850   0.000000
    13  H    1.507997   2.122979   0.000000
 Symmetry turned off by external request.
 Stoichiometry    Al4H2O7
 Framework group  C1[X(Al4H2O7)]
 Deg. of freedom    33
 Full point group                 C1      NOp   1
 Rotational constants (GHZ):           1.0639595           0.7524405           0.7448353
 Standard basis: Aug-CC-pVDZ (5D, 7F)
   287 basis functions,   643 primitive gaussians,   309 cartesian basis functions
    55 alpha electrons       55 beta electrons
       nuclear repulsion energy      1098.8196868134 Hartrees.
 NAtoms=   13 NActive=   13 NUniq=   13 SFac= 1.00D+00 NAtFMM=   60 NAOKFM=F Big=F
 Integral buffers will be    131072 words long.
 Raffenetti 2 integral format.
 Two-electron integral symmetry is turned off.
 One-electron integrals computed using PRISM.
 NBasis=   287 RedAO= T EigKep=  8.21D-05  NBF=   287
 NBsUse=   287 1.00D-06 EigRej= -1.00D+00 NBFU=   287
 Initial guess from the checkpoint file:  "h2o-ts1-irc.chk"
 B after Tr=    -0.000158   -0.000202    0.000134
         Rot=    1.000000    0.000017    0.000018    0.000041 Ang=   0.01 deg.
 ExpMin= 1.53D-02 ExpMax= 6.42D+04 ExpMxC= 2.19D+03 IAcc=3 IRadAn=         5 AccDes= 0.00D+00
 Harris functional with IExCor= 1009 and IRadAn=       5 diagonalized for initial guess.
 HarFok:  IExCor= 1009 AccDes= 0.00D+00 IRadAn=         5 IDoV= 1 UseB2=F ITyADJ=14
 ICtDFT=  3500011 ScaDFX=  1.000000  1.000000  1.000000  1.000000
 FoFCou: FMM=F IPFlag=           0 FMFlag=      100000 FMFlg1=           0
         NFxFlg=           0 DoJE=T BraDBF=F KetDBF=T FulRan=T
         wScrn=  0.000000 ICntrl=       500 IOpCl=  0 I1Cent=   200000004 NGrid=           0
         NMat0=    1 NMatS0=      1 NMatT0=    0 NMatD0=    1 NMtDS0=    0 NMtDT0=    0
 Symmetry not used in FoFCou.
 Requested convergence on RMS density matrix=1.00D-08 within 128 cycles.
 Requested convergence on MAX density matrix=1.00D-06.
 Requested convergence on             energy=1.00D-06.
 No special actions if energy rises.
 SCF Done:  E(RM062X) =  -1497.89040509     A.U. after   10 cycles
            NFock= 10  Conv=0.94D-08     -V/T= 2.0042
 DoSCS=F DFT=T ScalE2(SS,OS)=  1.000000  1.000000
 Range of M.O.s used for correlation:     1   287
 NBasis=   287 NAE=    55 NBE=    55 NFC=     0 NFV=     0
 NROrb=    287 NOA=    55 NOB=    55 NVA=   232 NVB=   232

 **** Warning!!: The largest alpha MO coefficient is  0.27681980D+02

 Symmetrizing basis deriv contribution to polar:
 IMax=3 JMax=2 DiffMx= 0.00D+00
 Calling FoFJK, ICntrl=      2127 FMM=F ISym2X=0 I1Cent= 0 IOpClX= 0 NMat=1 NMatS=1 NMatT=0.
 -------------------------------------------------------------------
 Center     Atomic                   Forces (Hartrees/Bohr)
 Number     Number              X              Y              Z
 -------------------------------------------------------------------
      1       13          -0.000016434    0.002078421   -0.001268661
      2        8          -0.003251666   -0.002420746    0.001221744
      3        8          -0.001253416   -0.000984568    0.000600208
      4        8           0.002325654   -0.002182299   -0.000270024
      5       13          -0.007881410   -0.000325794    0.002216630
      6       13           0.000251507    0.002016761   -0.001280088
      7       13           0.027234093    0.006796390   -0.004783837
      8        8           0.003274435   -0.000779478    0.001918657
      9        8          -0.001772147   -0.002177753    0.003072927
     10        8          -0.014166959   -0.009839505    0.003811525
     11        8          -0.001549579    0.012675307   -0.008369118
     12        1           0.000593364    0.001710200   -0.002617764
     13        1          -0.003787442   -0.006566936    0.005747800
 -------------------------------------------------------------------
 Cartesian Forces:  Max     0.027234093 RMS     0.006402731
 IRC-IRC-IRC-IRC-IRC-IRC-IRC-IRC-IRC-IRC-IRC-IRC-IRC-IRC-IRC-IRC-IRC-IRC
 Reaction path inflection point has been passed.
   Previous lowest Hessian eigenvalue=   -0.0004421053
   Current lowest Hessian eigenvalue =    0.0004083335
 Pt  7 Step number   1 out of a maximum of  20
 Point Number:   7          Path Number:   1
   CHANGE IN THE REACTION COORDINATE =    0.11184
   NET REACTION COORDINATE UP TO THIS POINT =    0.78289
  # OF POINTS ALONG THE PATH =   7
  # OF STEPS =   1

 Calculating another point on the path.
 IRC-IRC-IRC-IRC-IRC-IRC-IRC-IRC-IRC-IRC-IRC-IRC-IRC-IRC-IRC-IRC-IRC-IRC
                          Input orientation:                          
 ---------------------------------------------------------------------
 Center     Atomic      Atomic             Coordinates (Angstroms)
 Number     Number       Type             X           Y           Z
 ---------------------------------------------------------------------
      1         13           0       -0.836202    1.366799    0.769924
      2          8           0        0.847489    1.655319    0.529754
      3          8           0       -1.778889    1.277842   -0.695720
      4          8           0       -1.154846    0.041971    1.875171
      5         13           0       -0.565726   -1.298416    0.950241
      6         13           0       -1.085325   -0.148171   -1.424234
      7         13           0        1.462178    0.269472   -0.371808
      8          8           0       -1.426825   -1.610921   -0.519157
      9          8           0        0.576086    0.004361   -1.868171
     10          8           0        1.151800   -1.284713    0.730352
     11          8           0        3.142681   -0.337600   -0.005060
     12          1           0        3.735269    0.209605    0.516598
     13          1           0        2.163637   -1.260768    0.766201
 ---------------------------------------------------------------------
                    Distance matrix (angstroms):
                    1          2          3          4          5
     1  Al   0.000000
     2  O    1.725033   0.000000
     3  O    1.744902   2.922693   0.000000
     4  O    1.754502   2.902134   2.919980   0.000000
     5  Al   2.684966   3.301293   3.289081   1.731818   0.000000
     6  Al   2.677971   3.287312   1.745072   3.305610   2.689085
     7  Al   2.791098   1.763867   3.409727   3.456802   2.884178
     8  O    3.298088   4.115950   2.915488   2.922127   1.731554
     9  O    3.287908   2.923930   2.922721   4.124336   3.308234
    10  O    3.314247   2.962538   4.145999   2.896777   1.731599
    11  O    4.397395   3.086366   5.225754   4.706175   3.948170
    12  H    4.722459   3.229479   5.746023   5.078095   4.578290
    13  H    3.987876   3.208070   4.911747   3.733534   2.735820
                    6          7          8          9         10
     6  Al   0.000000
     7  Al   2.787794   0.000000
     8  O    1.753689   3.450207   0.000000
     9  O    1.726450   1.759132   2.905275   0.000000
    10  O    3.307370   1.930436   2.883919   2.957277   0.000000
    11  O    4.463851   1.824042   4.771375   3.189911   2.324104
    12  H    5.208931   2.441269   5.570845   3.963545   2.992155
    13  H    4.073282   2.031931   3.829644   3.325776   1.012755
                   11         12         13
    11  O    0.000000
    12  H    0.960584   0.000000
    13  H    1.551002   2.166639   0.000000
 Symmetry turned off by external request.
 Stoichiometry    Al4H2O7
 Framework group  C1[X(Al4H2O7)]
 Deg. of freedom    33
 Full point group                 C1      NOp   1
 Rotational constants (GHZ):           1.0634458           0.7524521           0.7444624
 Standard basis: Aug-CC-pVDZ (5D, 7F)
   287 basis functions,   643 primitive gaussians,   309 cartesian basis functions
    55 alpha electrons       55 beta electrons
       nuclear repulsion energy      1098.6473881061 Hartrees.
 NAtoms=   13 NActive=   13 NUniq=   13 SFac= 1.00D+00 NAtFMM=   60 NAOKFM=F Big=F
 Integral buffers will be    131072 words long.
 Raffenetti 2 integral format.
 Two-electron integral symmetry is turned off.
 One-electron integrals computed using PRISM.
 NBasis=   287 RedAO= T EigKep=  8.01D-05  NBF=   287
 NBsUse=   287 1.00D-06 EigRej= -1.00D+00 NBFU=   287
 Initial guess from the checkpoint file:  "h2o-ts1-irc.chk"
 B after Tr=    -0.000144   -0.000178    0.000113
         Rot=    1.000000    0.000018    0.000012    0.000035 Ang=   0.00 deg.
 ExpMin= 1.53D-02 ExpMax= 6.42D+04 ExpMxC= 2.19D+03 IAcc=3 IRadAn=         5 AccDes= 0.00D+00
 Harris functional with IExCor= 1009 and IRadAn=       5 diagonalized for initial guess.
 HarFok:  IExCor= 1009 AccDes= 0.00D+00 IRadAn=         5 IDoV= 1 UseB2=F ITyADJ=14
 ICtDFT=  3500011 ScaDFX=  1.000000  1.000000  1.000000  1.000000
 FoFCou: FMM=F IPFlag=           0 FMFlag=      100000 FMFlg1=           0
         NFxFlg=           0 DoJE=T BraDBF=F KetDBF=T FulRan=T
         wScrn=  0.000000 ICntrl=       500 IOpCl=  0 I1Cent=   200000004 NGrid=           0
         NMat0=    1 NMatS0=      1 NMatT0=    0 NMatD0=    1 NMtDS0=    0 NMtDT0=    0
 Symmetry not used in FoFCou.
 Requested convergence on RMS density matrix=1.00D-08 within 128 cycles.
 Requested convergence on MAX density matrix=1.00D-06.
 Requested convergence on             energy=1.00D-06.
 No special actions if energy rises.
 SCF Done:  E(RM062X) =  -1497.89183551     A.U. after   10 cycles
            NFock= 10  Conv=0.94D-08     -V/T= 2.0042
 DoSCS=F DFT=T ScalE2(SS,OS)=  1.000000  1.000000
 Range of M.O.s used for correlation:     1   287
 NBasis=   287 NAE=    55 NBE=    55 NFC=     0 NFV=     0
 NROrb=    287 NOA=    55 NOB=    55 NVA=   232 NVB=   232

 **** Warning!!: The largest alpha MO coefficient is  0.27447660D+02

 Symmetrizing basis deriv contribution to polar:
[...]
      1       13           0.000210470   -0.000013669   -0.000005923
      2        8           0.000172024   -0.000174338    0.000001462
      3        8           0.000138760    0.000092970   -0.000010382
      4        8          -0.000004405    0.000034354   -0.000000190
      5       13          -0.000192041   -0.000028325   -0.000020722
      6       13          -0.000035814    0.000015238   -0.000005155
      7       13           0.000121813   -0.000154701   -0.000237648
      8        8          -0.000187163    0.000058030    0.000013195
      9        8          -0.000020967   -0.000163771    0.000009437
     10        8          -0.000152375   -0.000468999    0.000196460
     11        8           0.000281511    0.001709056    0.000268577
     12        1          -0.000439460   -0.000769153   -0.000449792
     13        1           0.000107647   -0.000136692    0.000240680
 -------------------------------------------------------------------
 Cartesian Forces:  Max     0.001709056 RMS     0.000349498
 IRC-IRC-IRC-IRC-IRC-IRC-IRC-IRC-IRC-IRC-IRC-IRC-IRC-IRC-IRC-IRC-IRC-IRC
 Pt 94 Step number   1 out of a maximum of  20
 Point Number:  44          Path Number:   2
   CHANGE IN THE REACTION COORDINATE =    0.11119
   NET REACTION COORDINATE UP TO THIS POINT =    4.85235
  # OF POINTS ALONG THE PATH =  94
  # OF STEPS =   1

 Calculating another point on the path.
 PES minimum detected within a second-order step.
 Calculation of REVERSE path complete.
 Reaction path calculation complete.
 
 Energies reported relative to the TS energy of       -1497.881434
 --------------------------------------------------------------------------
    Summary of reaction path following
 --------------------------------------------------------------------------
                        Energy    RxCoord
   1                   -0.00693  -4.85235
   2                   -0.00690  -4.74116
   3                   -0.00687  -4.63044
   4                   -0.00684  -4.51909
   5                   -0.00680  -4.40996
   6                   -0.00676  -4.29928
   7                   -0.00671  -4.19210
   8                   -0.00666  -4.08182
   9                   -0.00661  -3.97292
  10                   -0.00655  -3.86190
  11                   -0.00648  -3.75200
  12                   -0.00641  -3.64175
  13                   -0.00631  -3.53690
  14                   -0.00624  -3.43256
  15                   -0.00615  -3.32907
  16                   -0.00610  -3.22036
  17                   -0.00600  -3.11033
  18                   -0.00589  -2.99899
  19                   -0.00577  -2.88752
  20                   -0.00564  -2.77582
  21                   -0.00550  -2.66431
  22                   -0.00535  -2.55260
  23                   -0.00519  -2.44113
  24                   -0.00502  -2.32943
  25                   -0.00484  -2.21792
  26                   -0.00465  -2.10619
  27                   -0.00445  -1.99455
  28                   -0.00424  -1.88277
  29                   -0.00401  -1.77104
  30                   -0.00377  -1.65924
  31                   -0.00352  -1.54750
  32                   -0.00325  -1.43574
  33                   -0.00298  -1.32424
  34                   -0.00269  -1.21272
  35                   -0.00239  -1.10267
  36                   -0.00211  -0.99452
  37                   -0.00181  -0.88872
  38                   -0.00158  -0.77829
  39                   -0.00130  -0.66744
  40                   -0.00103  -0.55562
  41                   -0.00076  -0.44411
  42                   -0.00050  -0.33228
  43                   -0.00026  -0.22185
  44                   -0.00008  -0.11192
  45                    0.00000   0.00000
  46                   -0.00019   0.11192
  47                   -0.00096   0.22361
  48                   -0.00237   0.33547
  49                   -0.00413   0.44735
  50                   -0.00586   0.55922
  51                   -0.00747   0.67106
  52                   -0.00897   0.78289
  53                   -0.01040   0.89476
  54                   -0.01178   1.00664
  55                   -0.01310   1.11853
  56                   -0.01438   1.23041
  57                   -0.01560   1.34229
  58                   -0.01672   1.45408
  59                   -0.01770   1.56533
  60                   -0.01872   1.67465
  61                   -0.01978   1.78458
  62                   -0.02076   1.89629
  63                   -0.02169   2.00812
  64                   -0.02257   2.11999
  65                   -0.02341   2.23186
  66                   -0.02421   2.34373
  67                   -0.02497   2.45560
  68                   -0.02569   2.56744
  69                   -0.02638   2.67930
  70                   -0.02702   2.79110
  71                   -0.02763   2.90286
  72                   -0.02820   3.01429
  73                   -0.02871   3.12525
  74                   -0.02922   3.23502
  75                   -0.02970   3.34537
  76                   -0.03016   3.45622
  77                   -0.03058   3.56760
  78                   -0.03097   3.67922
  79                   -0.03133   3.79066
  80                   -0.03165   3.90213
  81                   -0.03195   4.01256
  82                   -0.03218   4.12289
  83                   -0.03245   4.23065
  84                   -0.03265   4.34102
  85                   -0.03288   4.44974
  86                   -0.03307   4.56061
  87                   -0.03326   4.66945
  88                   -0.03342   4.77985
  89                   -0.03359   4.88936
  90                   -0.03373   5.00028
  91                   -0.03387   5.11129
  92                   -0.03399   5.22275
  93                   -0.03410   5.33430
  94                   -0.03421   5.44593
  95                   -0.03430   5.55758
 --------------------------------------------------------------------------
 
 Total number of points:                   94
 Total number of gradient calculations:    95
 Total number of Hessian calculations:      1
 IRC-IRC-IRC-IRC-IRC-IRC-IRC-IRC-IRC-IRC-IRC-IRC-IRC-IRC-IRC-IRC-IRC-IRC
                          Input orientation:                          
 ---------------------------------------------------------------------
 Center     Atomic      Atomic             Coordinates (Angstroms)
 Number     Number       Type             X           Y           Z
 ---------------------------------------------------------------------
      1         13           0       -0.800715    1.364654    0.767341
      2          8           0        0.908634    1.583137    0.553357
      3          8           0       -1.717010    1.327191   -0.720038
      4          8           0       -1.213738    0.065189    1.862409
      5         13           0       -0.631079   -1.303282    0.943665
      6         13           0       -1.084615   -0.141844   -1.426313
      7         13           0        1.394511    0.097588   -0.280853
      8          8           0       -1.523473   -1.579134   -0.532620
      9          8           0        0.596984   -0.057950   -1.842211
     10          8           0        1.092475   -1.330012    0.747564
     11          8           0        3.304329   -0.033522   -0.125956
     12          1           0        3.684497    0.734340    0.328916
     13          1           0        3.367011   -0.794178    0.480808
 ---------------------------------------------------------------------
                    Distance matrix (angstroms):
                    1          2          3          4          5
     1  Al   0.000000
     2  O    1.736489   0.000000
     3  O    1.747369   2.929343   0.000000
     4  O    1.748820   2.919288   2.918041   0.000000
     5  Al   2.679132   3.294613   3.296444   1.748227   0.000000
     6  Al   2.676239   3.296619   1.748374   3.297762   2.677952
     7  Al   2.742842   1.771677   3.374369   3.376030   2.750435
     8  O    3.298207   4.134543   2.918785   2.921627   1.746962
     9  O    3.284376   2.920452   2.921037   4.125299   3.289392
    10  O    3.293294   2.925398   4.136157   2.916862   1.734881
    11  O    4.427669   2.968907   5.236250   4.937232   4.271278
    12  H    4.550455   2.911400   5.534263   5.176106   4.811863
    13  H    4.702403   3.420601   5.638218   4.861130   4.056864
                    6          7          8          9         10
     6  Al   0.000000
     7  Al   2.741436   0.000000
     8  O    1.748453   3.374820   0.000000
     9  O    1.734297   1.760136   2.919823   0.000000
    10  O    3.298061   1.785192   2.923032   2.927557   0.000000
    11  O    4.578809   1.920570   5.085465   3.205595   2.708546
    12  H    5.156837   2.453836   5.763450   3.856716   3.339969
    13  H    4.886678   2.294805   5.055692   3.689376   2.351975
                   11         12         13
    11  O    0.000000
    12  H    0.970077   0.000000
    13  H    0.975033   1.568514   0.000000
 Symmetry turned off by external request.
 Stoichiometry    Al4H2O7
 Framework group  C1[X(Al4H2O7)]
 Deg. of freedom    33
 Full point group                 C1      NOp   1
 Rotational constants (GHZ):           1.0787884           0.7306868           0.7295194

 **********************************************************************

            Population analysis using the SCF Density.

 **********************************************************************

 Alpha  occ. eigenvalues --  -56.89188 -56.89154 -56.89144 -56.88374 -19.76868
 Alpha  occ. eigenvalues --  -19.60196 -19.60152 -19.60138 -19.59606 -19.59573
 Alpha  occ. eigenvalues --  -19.59414  -4.40052  -4.40024  -4.40014  -4.38897
 Alpha  occ. eigenvalues --   -2.90592  -2.90545  -2.90525  -2.89961  -2.89943
 Alpha  occ. eigenvalues --   -2.89931  -2.89910  -2.89906  -2.89898  -2.89349
 Alpha  occ. eigenvalues --   -2.88959  -2.88942  -1.26150  -1.05497  -1.02561
 Alpha  occ. eigenvalues --   -1.02543  -1.02446  -1.01101  -1.01008  -0.72804
 Alpha  occ. eigenvalues --   -0.62963  -0.55316  -0.50410  -0.49112  -0.49006
 Alpha  occ. eigenvalues --   -0.46895  -0.42746  -0.42718  -0.42687  -0.42581
 Alpha  occ. eigenvalues --   -0.42390  -0.42229  -0.37047  -0.37018  -0.36891
 Alpha  occ. eigenvalues --   -0.36608  -0.36500  -0.34002  -0.33964  -0.33711
 Alpha virt. eigenvalues --   -0.07574  -0.03426  -0.03105  -0.02977   0.00707
 Alpha virt. eigenvalues --    0.01119   0.01199   0.02203   0.02343   0.02466
 Alpha virt. eigenvalues --    0.02730   0.02785   0.02902   0.03870   0.03958
 Alpha virt. eigenvalues --    0.04342   0.04394   0.04929   0.06087   0.08363
 Alpha virt. eigenvalues --    0.09325   0.09360   0.10364   0.10793   0.11297
 Alpha virt. eigenvalues --    0.11555   0.12009   0.12405   0.12581   0.12710
 Alpha virt. eigenvalues --    0.12871   0.12954   0.13246   0.13585   0.13967
 Alpha virt. eigenvalues --    0.14353   0.14639   0.15606   0.16605   0.17245
 Alpha virt. eigenvalues --    0.17325   0.17915   0.17961   0.19429   0.19931
 Alpha virt. eigenvalues --    0.20733   0.22764   0.23152   0.23397   0.24236
 Alpha virt. eigenvalues --    0.24522   0.25754   0.26061   0.26335   0.26669
 Alpha virt. eigenvalues --    0.26973   0.27264   0.27709   0.28267   0.28701
 Alpha virt. eigenvalues --    0.29242   0.29744   0.29893   0.31015   0.31694
 Alpha virt. eigenvalues --    0.31775   0.32892   0.33156   0.33902   0.34419
 Alpha virt. eigenvalues --    0.35128   0.35652   0.36342   0.37027   0.37619
 Alpha virt. eigenvalues --    0.37728   0.39321   0.39492   0.40037   0.40560
 Alpha virt. eigenvalues --    0.40828   0.41752   0.41794   0.42808   0.43907
 Alpha virt. eigenvalues --    0.44894   0.46679   0.46850   0.47508   0.48177
 Alpha virt. eigenvalues --    0.48635   0.49233   0.49602   0.50996   0.52212
 Alpha virt. eigenvalues --    0.52374   0.52637   0.52873   0.53784   0.54940
 Alpha virt. eigenvalues --    0.55013   0.56230   0.56616   0.57217   0.57641
 Alpha virt. eigenvalues --    0.58877   0.60603   0.61771   0.62366   0.63486
 Alpha virt. eigenvalues --    0.65199   0.66512   0.68039   0.69828   0.74609
 Alpha virt. eigenvalues --    0.75436   0.75848   0.76878   0.81342   0.82658
 Alpha virt. eigenvalues --    0.84434   0.86226   0.87111   0.87342   0.89642
 Alpha virt. eigenvalues --    0.93509   0.94790   0.95204   0.97349   0.98976
 Alpha virt. eigenvalues --    1.00058   1.01330   1.02920   1.04720   1.06075
 Alpha virt. eigenvalues --    1.08766   1.11028   1.11645   1.12527   1.13784
 Alpha virt. eigenvalues --    1.14121   1.15226   1.16122   1.18412   1.18644
 Alpha virt. eigenvalues --    1.19269   1.19618   1.20086   1.20253   1.21426
 Alpha virt. eigenvalues --    1.21817   1.23390   1.28501   1.29908   1.31170
 Alpha virt. eigenvalues --    1.34855   1.39331   1.43863   1.44337   1.47869
 Alpha virt. eigenvalues --    1.49486   1.50651   1.51429   1.53957   1.55506
 Alpha virt. eigenvalues --    1.58194   1.62584   1.64687   1.65655   1.65891
 Alpha virt. eigenvalues --    1.67607   1.70128   1.70532   1.74244   1.80119
 Alpha virt. eigenvalues --    1.80632   1.85689   1.86392   1.89778   1.90077
 Alpha virt. eigenvalues --    1.92721   1.95519   2.02243   2.11074   2.11956
 Alpha virt. eigenvalues --    2.16599   2.22171   2.23203   2.36480   2.41441
 Alpha virt. eigenvalues --    2.46998   2.47232   2.48190   2.52861   2.57920
 Alpha virt. eigenvalues --    2.64463   2.78571   3.32464   3.34742   3.40360
 Alpha virt. eigenvalues --    3.42104   3.42483   3.43008   3.44926   3.45372
 Alpha virt. eigenvalues --    3.46922   3.48367   3.49542   3.49773   3.50209
 Alpha virt. eigenvalues --    3.50416   3.50912   3.51079   3.51949   3.52791
 Alpha virt. eigenvalues --    3.53237   3.53824   3.53934   3.54497   3.54674
 Alpha virt. eigenvalues --    3.56310   3.59085   3.60399   3.61034   3.61429
 Alpha virt. eigenvalues --    3.62096   3.62953   3.64258   3.66043   3.67945
 Alpha virt. eigenvalues --    3.70986   3.90793
          Condensed to atoms (all electrons):
               1          2          3          4          5          6
     1  Al  11.678089  -0.020300  -0.005728   0.004582  -0.226281  -0.199125
     2  O   -0.020300   8.866638   0.063303   0.052707   0.093410   0.101506
     3  O   -0.005728   0.063303   8.786714   0.059656   0.097457  -0.014810
     4  O    0.004582   0.052707   0.059656   8.810507  -0.000386   0.099990
     5  Al  -0.226281   0.093410   0.097457  -0.000386  11.843518  -0.217094
     6  Al  -0.199125   0.101506  -0.014810   0.099990  -0.217094  11.773517
     7  Al  -0.240365  -0.079507   0.091658   0.086259  -0.356215  -0.289046
     8  O    0.097124  -0.005916   0.063163   0.061594  -0.009545  -0.010307
     9  O    0.089413   0.064001   0.066510  -0.005198   0.088280  -0.038543
    10  O    0.076930   0.067258  -0.005510   0.055964  -0.081201   0.098242
    11  O   -0.009164   0.001751   0.000869  -0.001718   0.027335  -0.038927
    12  H    0.000543   0.003461   0.000581   0.001677   0.002782  -0.003344
    13  H    0.005879  -0.009688  -0.000136   0.002283  -0.011319  -0.000120
               7          8          9         10         11         12
     1  Al  -0.240365   0.097124   0.089413   0.076930  -0.009164   0.000543
     2  O   -0.079507  -0.005916   0.064001   0.067258   0.001751   0.003461
     3  O    0.091658   0.063163   0.066510  -0.005510   0.000869   0.000581
     4  O    0.086259   0.061594  -0.005198   0.055964  -0.001718   0.001677
     5  Al  -0.356215  -0.009545   0.088280  -0.081201   0.027335   0.002782
     6  Al  -0.289046  -0.010307  -0.038543   0.098242  -0.038927  -0.003344
     7  Al  12.336514   0.097170   0.029551  -0.115549  -0.177212   0.008576
     8  O    0.097170   8.797878   0.057255   0.060215   0.001692  -0.000094
     9  O    0.029551   0.057255   8.737520   0.058183   0.014435   0.002349
    10  O   -0.115549   0.060215   0.058183   8.948536  -0.008784  -0.013434
    11  O   -0.177212   0.001692   0.014435  -0.008784   7.778155   0.330661
    12  H    0.008576  -0.000094   0.002349  -0.013434   0.330661   0.429777
    13  H   -0.009233   0.002038  -0.000699   0.037686   0.303866  -0.025449
              13
     1  Al   0.005879
     2  O   -0.009688
     3  O   -0.000136
     4  O    0.002283
     5  Al  -0.011319
     6  Al  -0.000120
     7  Al  -0.009233
     8  O    0.002038
     9  O   -0.000699
    10  O    0.037686
    11  O    0.303866
    12  H   -0.025449
    13  H    0.412840
 Mulliken charges:
               1
     1  Al   1.748401
     2  O   -1.198623
     3  O   -1.203726
     4  O   -1.227918
     5  Al   1.749259
     6  Al   1.738060
     7  Al   1.617399
     8  O   -1.212268
     9  O   -1.163056
    10  O   -1.178535
    11  O   -0.222959
    12  H    0.261913
    13  H    0.292052
 Sum of Mulliken charges =  -0.00000
 Mulliken charges with hydrogens summed into heavy atoms:
               1
     1  Al   1.748401
     2  O   -1.198623
     3  O   -1.203726
     4  O   -1.227918
     5  Al   1.749259
     6  Al   1.738060
     7  Al   1.617399
     8  O   -1.212268
     9  O   -1.163056
    10  O   -1.178535
    11  O    0.331007
 APT charges:
               1
     1  Al   2.364975
     2  O   -1.571555
     3  O   -1.566075
     4  O   -1.563317
     5  Al   2.365516
     6  Al   2.435940
     7  Al   1.948921
     8  O   -1.562735
     9  O   -1.600848
    10  O   -1.579113
    11  O   -1.052941
    12  H    0.814222
    13  H    0.567010
 Sum of APT charges =  -0.00000
 APT charges with hydrogens summed into heavy atoms:
               1
     1  Al   2.364975
     2  O   -1.571555
     3  O   -1.566075
     4  O   -1.563317
     5  Al   2.365516
     6  Al   2.435940
     7  Al   1.948921
     8  O   -1.562735
     9  O   -1.600848
    10  O   -1.579113
    11  O    0.328291
 Electronic spatial extent (au):  <R**2>=           1847.8898
 Charge=              0.0000 electrons
 Dipole moment (field-independent basis, Debye):
    X=              4.0758    Y=              0.0592    Z=              1.4353  Tot=              4.3215
 Quadrupole moment (field-independent basis, Debye-Ang):
   XX=            -63.8233   YY=            -79.1701   ZZ=            -80.8766
   XY=              0.6286   XZ=              6.3790   YZ=             -0.2746
 Traceless Quadrupole moment (field-independent basis, Debye-Ang):
   XX=             10.8000   YY=             -4.5468   ZZ=             -6.2533
   XY=              0.6286   XZ=              6.3790   YZ=             -0.2746
 Octapole moment (field-independent basis, Debye-Ang**2):
  XXX=            108.6697  YYY=              3.2119  ZZZ=            -18.8946  XYY=             -6.7010
  XXY=              7.4325  XXZ=             10.1678  XZZ=            -20.0008  YZZ=             -6.6993
  YYZ=             30.7544  XYZ=             -4.2332
 Hexadecapole moment (field-independent basis, Debye-Ang**3):
 XXXX=           -788.1583 YYYY=           -570.2218 ZZZZ=           -601.9845 XXXY=             30.3023
 XXXZ=             85.7087 YYYX=            -17.9285 YYYZ=             -4.5737 ZZZX=             71.3213
 ZZZY=             -1.2220 XXYY=           -274.6155 XXZZ=           -263.3667 YYZZ=           -171.5921
 XXYZ=              5.9238 YYXZ=            -47.6105 ZZXY=              9.9354
 N-N= 1.095020988925D+03 E-N=-5.756029888039D+03  KE= 1.491512478060D+03
  Exact polarizability:       0.000       0.000       0.000       0.000       0.000       0.000
 Approx polarizability:     103.282       0.308     103.627       1.131       0.000     102.977

 This type of calculation cannot be archived.


 Democracy is the recurrent suspicion that more than half of the people
 are right more than half of the time.
 -- E. B. White
 Job cpu time:       2 days  3 hours 45 minutes 10.5 seconds.
 Elapsed time:       0 days  0 hours 49 minutes 33.3 seconds.
 File lengths (MBytes):  RWF=    138 Int=      0 D2E=      0 Chk=      9 Scr=      1
 Normal termination of Gaussian 16 at Tue Jul  1 23:02:29 2025.
