 Entering Gaussian System, Link 0=g16
 Initial command:
 /home/g16/g16/l1.exe "/home/xiong/AlLi/Gau-218895.inp" -scrdir="/home/xiong/AlLi/"
 Entering Link 1 = /home/g16/g16/l1.exe PID=    218896.
  
 Copyright (c) 1988-2019, Gaussian, Inc.  All Rights Reserved.
  
 This is part of the Gaussian(R) 16 program.  It is based on
 the Gaussian(R) 09 system (copyright 2009, Gaussian, Inc.),
 the Gaussian(R) 03 system (copyright 2003, Gaussian, Inc.),
 the Gaussian(R) 98 system (copyright 1998, Gaussian, Inc.),
 the Gaussian(R) 94 system (copyright 1995, Gaussian, Inc.),
 the Gaussian 92(TM) system (copyright 1992, Gaussian, Inc.),
 the Gaussian 90(TM) system (copyright 1990, Gaussian, Inc.),
 the Gaussian 88(TM) system (copyright 1988, Gaussian, Inc.),
 the Gaussian 86(TM) system (copyright 1986, Carnegie Mellon
 University), and the Gaussian 82(TM) system (copyright 1983,
 Carnegie Mellon University). Gaussian is a federally registered
 trademark of Gaussian, Inc.
  
 This software contains proprietary and confidential information,
 including trade secrets, belonging to Gaussian, Inc.
  
 This software is provided under written license and may be
 used, copied, transmitted, or stored only in accord with that
 written license.
  
 The following legend is applicable only to US Government
 contracts under FAR:
  
                    RESTRICTED RIGHTS LEGEND
  
 Use, reproduction and disclosure by the US Government is
 subject to restrictions as set forth in subparagraphs (a)
 and (c) of the Commercial Computer Software - Restricted
 Rights clause in FAR 52.227-19.
  
 Gaussian, Inc.
 340 Quinnipiac St., Bldg. 40, Wallingford CT 06492
  
  
 ---------------------------------------------------------------
 Warning -- This program may not be used in any manner that
 competes with the business of Gaussian, Inc. or will provide
 assistance to any competitor of Gaussian, Inc.  The licensee
 of this program is prohibited from giving any competitor of
 Gaussian, Inc. access to this program.  By using this program,
 the user acknowledges that Gaussian, Inc. is engaged in the
 business of creating and licensing software in the field of
 computational chemistry and represents and warrants to the
 licensee that it is not a competitor of Gaussian, Inc. and that
 it will not use this program in any manner prohibited above.
 ---------------------------------------------------------------
  

 Cite this work as:
 Gaussian 16, Revision C.01,
 M. J. Frisch, G. W. Trucks, H. B. Schlegel, G. E. Scuseria, 
 M. A. Robb, J. R. Cheeseman, G. Scalmani, V. Barone, 
 G. A. Petersson, H. Nakatsuji, X. Li, M. Caricato, A. V. Marenich, 
 J. Bloino, B. G. Janesko, R. Gomperts, B. Mennucci, H. P. Hratchian, 
 J. V. Ortiz, A. F. Izmaylov, J. L. Sonnenberg, D. Williams-Young, 
 F. Ding, F. Lipparini, F. Egidi, J. Goings, B. Peng, A. Petrone, 
 T. Henderson, D. Ranasinghe, V. G. Zakrzewski, J. Gao, N. Rega, 
 G. Zheng, W. Liang, M. Hada, M. Ehara, K. Toyota, R. Fukuda, 
 J. Hasegawa, M. Ishida, T. Nakajima, Y. Honda, O. Kitao, H. Nakai, 
 T. Vreven, K. Throssell, J. A. Montgomery, Jr., J. E. Peralta, 
 F. Ogliaro, M. J. Bearpark, J. J. Heyd, E. N. Brothers, K. N. Kudin, 
 V. N. Staroverov, T. A. Keith, R. Kobayashi, J. Normand, 
 K. Raghavachari, A. P. Rendell, J. C. Burant, S. S. Iyengar, 
 J. Tomasi, M. Cossi, J. M. Millam, M. Klene, C. Adamo, R. Cammi, 
 J. W. Ochterski, R. L. Martin, K. Morokuma, O. Farkas, 
 J. B. Foresman, and D. J. Fox, Gaussian, Inc., Wallingford CT, 2019.
 
 ******************************************
 Gaussian 16:  ES64L-G16RevC.01  3-Jul-2019
                 1-Jul-2025 
 ******************************************
 %chk=h2o-ts2-irc.chk
 %mem=50GB
 %nprocshared=64
 Will use up to   64 processors via shared memory.
 ------------------------------------------------
 # m062x/aug-cc-pvdz irc(calcfc,maxpoints=50,LQA)
 ------------------------------------------------
 1/10=4,18=10,26=3,38=1,42=50,44=3,45=2,172=1/1,23;
 2/12=2,17=6,18=5,29=1,40=1/2;
 3/5=16,7=10,11=2,25=1,30=1,71=2,74=-55,140=1/1,2,3;
 4//1;
 5/5=2,38=5/2;
 8/6=4,10=90,11=11/1;
 11/6=1,8=1,9=11,15=111,16=1/1,2,10;
 10/6=1,13=1/2;
 6/7=2,8=2,9=2,10=2,28=1/1;
 7/10=1,25=1/1,2,3,16;
 1/10=4,18=10,26=3,42=50,44=3,45=2/23(2);
 2/29=1/2;
 99/5=20/99;
 2/29=1/2;
 3/5=16,7=10,11=2,25=1,30=1,71=2,74=-55,140=1/1,2,3;
 4/5=5,16=3,69=1/1;
 5/5=2,38=5/2;
 8/6=4,10=90,11=11/1;
 11/6=1,8=1,9=11,15=111,16=1/1,2,10;
 10/6=1,13=1/2;
 7/10=1,25=1/1,2,3,16;
 1/18=10,26=3,42=50,44=3,45=2/23(-8);
 2/29=1/2;
 6/7=2,8=2,9=2,10=2,19=2,28=1/1;
 99/5=20,9=1/99;
 -------------------
 Title Card Required
 -------------------
 Symbolic Z-matrix:
 Charge =  0 Multiplicity = 1
 Al                   0     0.76285  -0.53945   1.48442 
 O                    0    -0.94472  -0.33006   1.56165 
 O                    0     1.29646  -1.80176   0.41162 
 O                    0     1.64817   0.95527   1.30684 
 Al                   0     1.21056   1.3923   -0.31172 
 Al                   0     0.76111  -1.14602  -1.11248 
 Al                   0    -1.73925  -0.22499   0.00473 
 O                    0     1.6264    0.295    -1.57689 
 O                    0    -0.94404  -1.05064  -1.30399 
 O                    0    -0.38539   2.06815  -0.48827 
 O                    0    -3.34928   0.3392   -0.14319 
 H                    0    -3.82349   0.62508   0.63978 
 H                    0    -0.72992   2.61845   0.2228 
 
 IRC-IRC-IRC-IRC-IRC-IRC-IRC-IRC-IRC-IRC-IRC-IRC-IRC-IRC-IRC-IRC-IRC-IRC
 ------------------------------------------------------------------------
 INPUT DATA FOR L123
 ------------------------------------------------------------------------
 GENERAL PARAMETERS:
 Follow reaction path in both directions.
 Maximum points per path      =  50
 Step size                    =   0.100 bohr
 Integration scheme           = LQA                                 
 Initial Hessian              = CalcFC
 Hessian evaluation           = All updating
 Hessian updating method      = Bofill                              
 ------------------------------------------------------------------------
 IRC-IRC-IRC-IRC-IRC-IRC-IRC-IRC-IRC-IRC-IRC-IRC-IRC-IRC-IRC-IRC-IRC-IRC
                          Input orientation:                          
 ---------------------------------------------------------------------
 Center     Atomic      Atomic             Coordinates (Angstroms)
 Number     Number       Type             X           Y           Z
 ---------------------------------------------------------------------
      1         13           0        0.762846   -0.539454    1.484422
      2          8           0       -0.944719   -0.330063    1.561654
      3          8           0        1.296456   -1.801759    0.411621
      4          8           0        1.648170    0.955268    1.306845
      5         13           0        1.210556    1.392300   -0.311724
      6         13           0        0.761108   -1.146017   -1.112475
      7         13           0       -1.739248   -0.224992    0.004731
      8          8           0        1.626397    0.295001   -1.576886
      9          8           0       -0.944042   -1.050640   -1.303991
     10          8           0       -0.385389    2.068150   -0.488273
     11          8           0       -3.349276    0.339203   -0.143191
     12          1           0       -3.823486    0.625084    0.639777
     13          1           0       -0.729925    2.618449    0.222800
 ---------------------------------------------------------------------
                    Distance matrix (angstroms):
                    1          2          3          4          5
     1  Al   0.000000
     2  O    1.722088   0.000000
     3  O    1.740419   2.917419   0.000000
     4  O    1.746290   2.905181   2.919988   0.000000
     5  Al   2.675492   3.334859   3.276068   1.732705   0.000000
     6  Al   2.666795   3.275148   1.743406   3.324965   2.699308
     7  Al   2.923841   1.751092   3.444888   3.816166   3.378923
     8  O    3.288410   4.105091   2.908509   2.958433   1.725579
     9  O    3.309082   2.954852   2.920160   4.190429   3.405120
    10  O    3.465482   3.204134   4.314465   2.931947   1.742120
    11  O    4.508958   3.022632   5.145324   5.239905   4.682892
    12  H    4.806663   3.170089   5.670576   5.522049   5.180304
    13  H    3.713812   3.245364   4.866221   3.097847   2.356824
                    6          7          8          9         10
     6  Al   0.000000
     7  Al   2.889328   0.000000
     8  O    1.743829   3.754926   0.000000
     9  O    1.718520   1.739770   2.914169   0.000000
    10  O    3.469144   2.708226   2.894204   3.271749   0.000000
    11  O    4.476678   1.712421   5.178296   3.010692   3.448617
    12  H    5.217824   2.338795   5.892688   3.857134   3.895567
    13  H    4.263490   3.025136   3.766899   3.979843   0.962890
                   11         12         13
    11  O    0.000000
    12  H    0.958980   0.000000
    13  H    3.491405   3.703714   0.000000
 Symmetry turned off by external request.
 Stoichiometry    Al4H2O7
 Framework group  C1[X(Al4H2O7)]
 Deg. of freedom    33
 Full point group                 C1      NOp   1
 Rotational constants (GHZ):           1.0152645           0.6954547           0.6716482
 Standard basis: Aug-CC-pVDZ (5D, 7F)
   287 basis functions,   643 primitive gaussians,   309 cartesian basis functions
    55 alpha electrons       55 beta electrons
       nuclear repulsion energy      1068.5254336423 Hartrees.
 NAtoms=   13 NActive=   13 NUniq=   13 SFac= 1.00D+00 NAtFMM=   60 NAOKFM=F Big=F
 Integral buffers will be    131072 words long.
 Raffenetti 2 integral format.
 Two-electron integral symmetry is turned off.
 One-electron integrals computed using PRISM.
 NBasis=   287 RedAO= T EigKep=  1.11D-04  NBF=   287
 NBsUse=   287 1.00D-06 EigRej= -1.00D+00 NBFU=   287
 ExpMin= 1.53D-02 ExpMax= 6.42D+04 ExpMxC= 2.19D+03 IAcc=3 IRadAn=         5 AccDes= 0.00D+00
 Harris functional with IExCor= 1009 and IRadAn=       5 diagonalized for initial guess.
 HarFok:  IExCor= 1009 AccDes= 0.00D+00 IRadAn=         5 IDoV= 1 UseB2=F ITyADJ=14
 ICtDFT=  3500011 ScaDFX=  1.000000  1.000000  1.000000  1.000000
 FoFCou: FMM=F IPFlag=           0 FMFlag=      100000 FMFlg1=           0
         NFxFlg=           0 DoJE=T BraDBF=F KetDBF=T FulRan=T
         wScrn=  0.000000 ICntrl=       500 IOpCl=  0 I1Cent=   200000004 NGrid=           0
         NMat0=    1 NMatS0=      1 NMatT0=    0 NMatD0=    1 NMtDS0=    0 NMtDT0=    0
 Symmetry not used in FoFCou.
 Requested convergence on RMS density matrix=1.00D-08 within 128 cycles.
 Requested convergence on MAX density matrix=1.00D-06.
 Requested convergence on             energy=1.00D-06.
 No special actions if energy rises.
 SCF Done:  E(RM062X) =  -1497.91181813     A.U. after   13 cycles
            NFock= 13  Conv=0.72D-08     -V/T= 2.0043
 DoSCS=F DFT=T ScalE2(SS,OS)=  1.000000  1.000000
 Range of M.O.s used for correlation:     1   287
 NBasis=   287 NAE=    55 NBE=    55 NFC=     0 NFV=     0
 NROrb=    287 NOA=    55 NOB=    55 NVA=   232 NVB=   232

 **** Warning!!: The largest alpha MO coefficient is  0.24875995D+02

 Symmetrizing basis deriv contribution to polar:
 IMax=3 JMax=2 DiffMx= 0.00D+00
 G2DrvN: will do    14 centers at a time, making    1 passes.
 Calling FoFCou, ICntrl=  3107 FMM=F I1Cent=   0 AccDes= 0.00D+00.
 End of G2Drv F.D. properties file   721 does not exist.
 End of G2Drv F.D. properties file   722 does not exist.
 End of G2Drv F.D. properties file   788 does not exist.
          IDoAtm=1111111111111
          Differentiating once with respect to nuclear coordinates.
 Keep R1 ints in memory in canonical form, NReq=926978357.
          There are    42 degrees of freedom in the 1st order CPHF.  IDoFFX=6 NUNeed=     0.
     36 vectors produced by pass  0 Test12= 3.04D-14 2.38D-09 XBig12= 5.56D-02 5.15D-02.
 AX will form    36 AO Fock derivatives at one time.
     36 vectors produced by pass  1 Test12= 3.04D-14 2.38D-09 XBig12= 1.17D-02 1.50D-02.
     36 vectors produced by pass  2 Test12= 3.04D-14 2.38D-09 XBig12= 8.14D-04 6.13D-03.
     36 vectors produced by pass  3 Test12= 3.04D-14 2.38D-09 XBig12= 3.05D-05 1.15D-03.
     36 vectors produced by pass  4 Test12= 3.04D-14 2.38D-09 XBig12= 2.89D-07 5.40D-05.
     36 vectors produced by pass  5 Test12= 3.04D-14 2.38D-09 XBig12= 2.19D-09 5.27D-06.
     36 vectors produced by pass  6 Test12= 3.04D-14 2.38D-09 XBig12= 1.69D-11 4.52D-07.
     21 vectors produced by pass  7 Test12= 3.04D-14 2.38D-09 XBig12= 8.89D-14 2.19D-08.
 InvSVY:  IOpt=1 It=  1 EMax= 2.44D-15
 Solved reduced A of dimension   273 with    36 vectors.
 End of Minotr F.D. properties file   721 does not exist.
 End of Minotr F.D. properties file   722 does not exist.
 End of Minotr F.D. properties file   788 does not exist.

 **********************************************************************

            Population analysis using the SCF Density.

 **********************************************************************

 Alpha  occ. eigenvalues --  -56.92065 -56.91173 -56.91047 -56.89282 -19.66313
 Alpha  occ. eigenvalues --  -19.62881 -19.62769 -19.62237 -19.62076 -19.61990
 Alpha  occ. eigenvalues --  -19.61705  -4.42978  -4.42077  -4.41942  -4.39925
 Alpha  occ. eigenvalues --   -2.93469  -2.92929  -2.92890  -2.92586  -2.92447
 Alpha  occ. eigenvalues --   -2.91993  -2.91975  -2.91860  -2.91839  -2.90313
 Alpha  occ. eigenvalues --   -2.90008  -2.89957  -1.12313  -1.08675  -1.07386
 Alpha  occ. eigenvalues --   -1.05330  -1.05091  -1.03989  -1.03691  -0.59882
 Alpha  occ. eigenvalues --   -0.56843  -0.52046  -0.51641  -0.50614  -0.49372
 Alpha  occ. eigenvalues --   -0.46152  -0.45650  -0.45237  -0.45073  -0.44811
 Alpha  occ. eigenvalues --   -0.42258  -0.41131  -0.40757  -0.39824  -0.39202
 Alpha  occ. eigenvalues --   -0.38843  -0.38514  -0.38218  -0.36872  -0.36315
 Alpha virt. eigenvalues --   -0.08855  -0.04446  -0.04318  -0.00854   0.00511
 Alpha virt. eigenvalues --    0.00822   0.01381   0.01704   0.02030   0.02177
 Alpha virt. eigenvalues --    0.02238   0.02539   0.02595   0.03827   0.03981
 Alpha virt. eigenvalues --    0.04219   0.04728   0.05359   0.06641   0.07525
 Alpha virt. eigenvalues --    0.08541   0.08625   0.09314   0.09951   0.10627
 Alpha virt. eigenvalues --    0.10746   0.11171   0.11304   0.11696   0.11879
 Alpha virt. eigenvalues --    0.11916   0.11996   0.13258   0.13673   0.14712
 Alpha virt. eigenvalues --    0.15073   0.15771   0.15860   0.16264   0.16342
 Alpha virt. eigenvalues --    0.17267   0.17389   0.18596   0.18976   0.19991
 Alpha virt. eigenvalues --    0.20253   0.21266   0.22297   0.22588   0.23072
 Alpha virt. eigenvalues --    0.24066   0.24455   0.24720   0.25578   0.25800
 Alpha virt. eigenvalues --    0.25887   0.26308   0.26683   0.27328   0.27470
 Alpha virt. eigenvalues --    0.27621   0.28023   0.28442   0.29375   0.29879
 Alpha virt. eigenvalues --    0.30941   0.31577   0.31973   0.32832   0.33269
 Alpha virt. eigenvalues --    0.34185   0.34821   0.35604   0.36166   0.36991
 Alpha virt. eigenvalues --    0.37425   0.38553   0.38760   0.38972   0.39069
 Alpha virt. eigenvalues --    0.39908   0.40753   0.41892   0.42697   0.44262
 Alpha virt. eigenvalues --    0.44541   0.45134   0.46024   0.47034   0.47272
 Alpha virt. eigenvalues --    0.47579   0.48235   0.48865   0.49281   0.50195
 Alpha virt. eigenvalues --    0.50659   0.51557   0.52777   0.53702   0.54066
 Alpha virt. eigenvalues --    0.54665   0.54976   0.56010   0.57066   0.58117
 Alpha virt. eigenvalues --    0.59899   0.60206   0.61025   0.61667   0.62744
 Alpha virt. eigenvalues --    0.63702   0.64961   0.65737   0.67378   0.74416
 Alpha virt. eigenvalues --    0.74995   0.77610   0.78733   0.82692   0.83000
 Alpha virt. eigenvalues --    0.83517   0.84193   0.84852   0.87854   0.90064
 Alpha virt. eigenvalues --    0.90926   0.93485   0.95607   0.96892   0.98260
 Alpha virt. eigenvalues --    1.00084   1.00340   1.01125   1.02677   1.04296
 Alpha virt. eigenvalues --    1.06886   1.07367   1.07983   1.08171   1.10263
 Alpha virt. eigenvalues --    1.10853   1.11708   1.12439   1.13768   1.15294
 Alpha virt. eigenvalues --    1.15715   1.16484   1.18176   1.19222   1.19588
 Alpha virt. eigenvalues --    1.20925   1.21938   1.26970   1.27860   1.29181
 Alpha virt. eigenvalues --    1.34910   1.36554   1.38959   1.41732   1.44117
 Alpha virt. eigenvalues --    1.46816   1.49551   1.50026   1.52880   1.55267
 Alpha virt. eigenvalues --    1.57416   1.59376   1.59972   1.62274   1.63770
 Alpha virt. eigenvalues --    1.64516   1.65999   1.69148   1.69823   1.73379
 Alpha virt. eigenvalues --    1.79723   1.84562   1.87934   1.88436   1.94261
 Alpha virt. eigenvalues --    1.95491   1.98356   2.08681   2.11062   2.14105
 Alpha virt. eigenvalues --    2.16218   2.20318   2.23829   2.40273   2.45291
 Alpha virt. eigenvalues --    2.46936   2.48349   2.48614   2.52251   2.58885
 Alpha virt. eigenvalues --    2.73977   2.77436   3.37535   3.39661   3.40053
 Alpha virt. eigenvalues --    3.40093   3.41123   3.41863   3.42898   3.43531
 Alpha virt. eigenvalues --    3.44270   3.44735   3.45178   3.45979   3.46815
 Alpha virt. eigenvalues --    3.47791   3.48006   3.48911   3.49311   3.49788
 Alpha virt. eigenvalues --    3.50653   3.50880   3.52557   3.52904   3.53865
 Alpha virt. eigenvalues --    3.54649   3.55446   3.55968   3.56482   3.57834
 Alpha virt. eigenvalues --    3.58649   3.60192   3.60991   3.66986   3.67861
 Alpha virt. eigenvalues --    3.90469   3.96056
          Condensed to atoms (all electrons):
               1          2          3          4          5          6
     1  Al  11.760443  -0.104994  -0.017879  -0.015166  -0.243079  -0.242754
     2  O   -0.104994   8.839684   0.066939   0.092273   0.017076   0.080304
     3  O   -0.017879   0.066939   8.800677   0.065678   0.119097  -0.032062
     4  O   -0.015166   0.092273   0.065678   8.772401   0.062396   0.102305
     5  Al  -0.243079   0.017076   0.119097   0.062396  11.421299  -0.253320
     6  Al  -0.242754   0.080304  -0.032062   0.102305  -0.253320  11.738534
     7  Al  -0.141050   0.075695   0.083533   0.034680  -0.018901  -0.166697
     8  O    0.092407  -0.009295   0.061601   0.044983   0.065686  -0.012651
     9  O    0.069497   0.043811   0.068186  -0.005608   0.060651  -0.103736
    10  O    0.006919   0.006755  -0.004759   0.078972  -0.115906   0.034043
    11  O   -0.018918   0.080907   0.002730  -0.000326   0.011755   0.011876
    12  H    0.009374  -0.007430   0.000396   0.000191  -0.000946   0.000979
    13  H    0.016367   0.001470  -0.003080  -0.004002   0.046194   0.007333
               7          8          9         10         11         12
     1  Al  -0.141050   0.092407   0.069497   0.006919  -0.018918   0.009374
     2  O    0.075695  -0.009295   0.043811   0.006755   0.080907  -0.007430
     3  O    0.083533   0.061601   0.068186  -0.004759   0.002730   0.000396
     4  O    0.034680   0.044983  -0.005608   0.078972  -0.000326   0.000191
     5  Al  -0.018901   0.065686   0.060651  -0.115906   0.011755  -0.000946
     6  Al  -0.166697  -0.012651  -0.103736   0.034043   0.011876   0.000979
     7  Al  11.310189   0.060409   0.128309   0.044611  -0.107594   0.068654
     8  O    0.060409   8.761648   0.065714   0.054087   0.000134  -0.000098
     9  O    0.128309   0.065714   8.719141   0.003797   0.070409   0.002519
    10  O    0.044611   0.054087   0.003797   8.282205  -0.008093  -0.002954
    11  O   -0.107594   0.000134   0.070409  -0.008093   8.322342   0.281678
    12  H    0.068654  -0.000098   0.002519  -0.002954   0.281678   0.568227
    13  H    0.002962   0.003801   0.001116   0.316509   0.003627   0.000340
              13
     1  Al   0.016367
     2  O    0.001470
     3  O   -0.003080
     4  O   -0.004002
     5  Al   0.046194
     6  Al   0.007333
     7  Al   0.002962
     8  O    0.003801
     9  O    0.001116
    10  O    0.316509
    11  O    0.003627
    12  H    0.000340
    13  H    0.522330
 Mulliken charges:
               1
     1  Al   1.828833
     2  O   -1.183195
     3  O   -1.211058
     4  O   -1.228778
     5  Al   1.827996
     6  Al   1.835846
     7  Al   1.625198
     8  O   -1.188426
     9  O   -1.123806
    10  O   -0.696186
    11  O   -0.650527
    12  H    0.079070
    13  H    0.085033
 Sum of Mulliken charges =  -0.00000
 Mulliken charges with hydrogens summed into heavy atoms:
               1
     1  Al   1.828833
     2  O   -1.183195
     3  O   -1.211058
     4  O   -1.228778
     5  Al   1.827996
     6  Al   1.835846
     7  Al   1.625198
     8  O   -1.188426
     9  O   -1.123806
    10  O   -0.611154
    11  O   -0.571457
 APT charges:
               1
     1  Al   2.491646
     2  O   -1.585043
     3  O   -1.570538
     4  O   -1.530839
     5  Al   2.227248
     6  Al   2.480658
     7  Al   1.962554
     8  O   -1.523116
     9  O   -1.579147
    10  O   -1.394448
    11  O   -1.521589
    12  H    0.882818
    13  H    0.659797
 Sum of APT charges =  -0.00000
 APT charges with hydrogens summed into heavy atoms:
               1
     1  Al   2.491646
     2  O   -1.585043
     3  O   -1.570538
     4  O   -1.530839
     5  Al   2.227248
     6  Al   2.480658
     7  Al   1.962554
     8  O   -1.523116
     9  O   -1.579147
    10  O   -0.734651
    11  O   -0.638771
 Electronic spatial extent (au):  <R**2>=           1961.0981
 Charge=             -0.0000 electrons
 Dipole moment (field-independent basis, Debye):
    X=              2.1156    Y=              1.1864    Z=              1.9908  Tot=              3.1379
 Quadrupole moment (field-independent basis, Debye-Ang):
   XX=            -87.1749   YY=            -72.2181   ZZ=            -79.2266
   XY=              0.1335   XZ=             -7.1129   YZ=              2.8666
 Traceless Quadrupole moment (field-independent basis, Debye-Ang):
   XX=             -7.6350   YY=              7.3218   ZZ=              0.3133
   XY=              0.1335   XZ=             -7.1129   YZ=              2.8666
 Octapole moment (field-independent basis, Debye-Ang**2):
  XXX=            -10.1553  YYY=             30.9404  ZZZ=             19.3990  XYY=              8.8813
  XXY=             13.5115  XXZ=             19.4686  XZZ=             12.2061  YZZ=            -24.5877
  YYZ=             -8.7869  XYZ=             -5.8195
 Hexadecapole moment (field-independent basis, Debye-Ang**3):
 XXXX=          -1199.8524 YYYY=           -599.6260 ZZZZ=           -552.1446 XXXY=             -1.6601
 XXXZ=            -96.4640 YYYX=             29.2817 YYYZ=             35.6387 ZZZX=             26.1322
 ZZZY=             -7.2817 XXYY=           -276.8672 XXZZ=           -306.4690 YYZZ=           -189.5908
 XXYZ=              5.7071 YYXZ=            -45.0660 ZZXY=            -43.9360
 N-N= 1.068525433642D+03 E-N=-5.701949367926D+03  KE= 1.491572299925D+03
  Exact polarizability:       0.000       0.000       0.000       0.000       0.000       0.000
 Approx polarizability:     101.122      -0.026     100.325      -0.726       1.567     103.340
 Calling FoFJK, ICntrl=    100127 FMM=F ISym2X=0 I1Cent= 0 IOpClX= 0 NMat=1 NMatS=1 NMatT=0.
 -------------------------------------------------------------------
 Center     Atomic                   Forces (Hartrees/Bohr)
 Number     Number              X              Y              Z
 -------------------------------------------------------------------
      1       13           0.000001006    0.000005108   -0.000004113
      2        8          -0.000001487   -0.000002342    0.000004813
      3        8          -0.000005050    0.000001411    0.000002083
      4        8          -0.000007571    0.000012611   -0.000006907
      5       13           0.000000457   -0.000003556    0.000005535
      6       13          -0.000007123    0.000012140    0.000001122
      7       13          -0.000001798   -0.000013281    0.000001446
      8        8           0.000000761   -0.000005719    0.000014960
      9        8           0.000012288    0.000010852    0.000003078
     10        8           0.000004045   -0.000007261    0.000019586
     11        8          -0.000007647   -0.000000154   -0.000017691
     12        1           0.000011738   -0.000008902   -0.000010548
     13        1           0.000000380   -0.000000906   -0.000013364
 -------------------------------------------------------------------
 Cartesian Forces:  Max     0.000019586 RMS     0.000008263
 IRC-IRC-IRC-IRC-IRC-IRC-IRC-IRC-IRC-IRC-IRC-IRC-IRC-IRC-IRC-IRC-IRC-IRC
          ******** Start new reaction path calculation ********
 Supplied step size of   0.1000 bohr.
    Integration on MW PES will use step size of   0.3386 sqrt(amu)*bohr.
 Point Number:   0          Path Number:   1
 Calculating another point on the path.
 IRC-IRC-IRC-IRC-IRC-IRC-IRC-IRC-IRC-IRC-IRC-IRC-IRC-IRC-IRC-IRC-IRC-IRC
                          Input orientation:                          
 ---------------------------------------------------------------------
 Center     Atomic      Atomic             Coordinates (Angstroms)
 Number     Number       Type             X           Y           Z
 ---------------------------------------------------------------------
      1         13           0        0.738768   -0.525587    1.490155
      2          8           0       -0.968078   -0.315456    1.566829
      3          8           0        1.274883   -1.786379    0.416530
      4          8           0        1.623535    0.970777    1.311572
      5         13           0        1.182379    1.402748   -0.306671
      6         13           0        0.737917   -1.132760   -1.107981
      7         13           0       -1.756318   -0.196114    0.006087
      8          8           0        1.602804    0.309603   -1.572985
      9          8           0       -0.966432   -1.034253   -1.299329
     10          8           0       -0.428741    2.052207   -0.476822
     11          8           0       -3.369692    0.361184   -0.138750
     12          1           0       -3.846175    0.635871    0.646908
     13          1           0       -0.773889    2.606599    0.231082
 ---------------------------------------------------------------------
                    Distance matrix (angstroms):
                    1          2          3          4          5
     1  Al   0.000000
     2  O    1.721441   0.000000
     3  O    1.740599   2.918506   0.000000
     4  O    1.747515   2.904481   2.919686   0.000000
     5  Al   2.672798   3.329668   3.271407   1.732030   0.000000
     6  Al   2.668139   3.276127   1.743468   3.326173   2.696005
     7  Al   2.921723   1.752564   3.447548   3.806485   3.360076
     8  O    3.290430   4.105918   2.908409   2.959435   1.724898
     9  O    3.308727   2.954917   2.921192   4.188661   3.397312
    10  O    3.446316   3.173833   4.293618   2.929109   1.745410
    11  O    4.507676   3.022349   5.147081   5.235204   4.672730
    12  H    4.804348   3.167763   5.669710   5.520115   5.175304
    13  H    3.699187   3.218747   4.850785   3.096936   2.359114
                    6          7          8          9         10
     6  Al   0.000000
     7  Al   2.887847   0.000000
     8  O    1.744899   3.746054   0.000000
     9  O    1.717883   1.740835   2.912355   0.000000
    10  O    3.450140   2.655298   2.892303   3.239115   0.000000
    11  O    4.477022   1.713049   5.175463   3.011619   3.409259
    12  H    5.217431   2.338879   5.892856   3.856173   3.866217
    13  H    4.249877   2.978421   3.765570   3.954116   0.963123
                   11         12         13
    11  O    0.000000
    12  H    0.959035   0.000000
    13  H    3.452081   3.673639   0.000000
 Symmetry turned off by external request.
 Stoichiometry    Al4H2O7
 Framework group  C1[X(Al4H2O7)]
 Deg. of freedom    33
 Full point group                 C1      NOp   1
 Rotational constants (GHZ):           1.0202744           0.6963544           0.6748017
 Standard basis: Aug-CC-pVDZ (5D, 7F)
   287 basis functions,   643 primitive gaussians,   309 cartesian basis functions
    55 alpha electrons       55 beta electrons
       nuclear repulsion energy      1069.8636613637 Hartrees.
 NAtoms=   13 NActive=   13 NUniq=   13 SFac= 1.00D+00 NAtFMM=   60 NAOKFM=F Big=F
 Integral buffers will be    131072 words long.
 Raffenetti 2 integral format.
 Two-electron integral symmetry is turned off.
 One-electron integrals computed using PRISM.
 NBasis=   287 RedAO= T EigKep=  1.10D-04  NBF=   287
 NBsUse=   287 1.00D-06 EigRej= -1.00D+00 NBFU=   287
 Initial guess from the checkpoint file:  "h2o-ts2-irc.chk"
 B after Tr=    -0.046450    0.026163    0.009377
         Rot=    1.000000   -0.000019   -0.000009   -0.000067 Ang=  -0.01 deg.
 ExpMin= 1.53D-02 ExpMax= 6.42D+04 ExpMxC= 2.19D+03 IAcc=3 IRadAn=         5 AccDes= 0.00D+00
 Harris functional with IExCor= 1009 and IRadAn=       5 diagonalized for initial guess.
 HarFok:  IExCor= 1009 AccDes= 0.00D+00 IRadAn=         5 IDoV= 1 UseB2=F ITyADJ=14
 ICtDFT=  3500011 ScaDFX=  1.000000  1.000000  1.000000  1.000000
 FoFCou: FMM=F IPFlag=           0 FMFlag=      100000 FMFlg1=           0
         NFxFlg=           0 DoJE=T BraDBF=F KetDBF=T FulRan=T
         wScrn=  0.000000 ICntrl=       500 IOpCl=  0 I1Cent=   200000004 NGrid=           0
         NMat0=    1 NMatS0=      1 NMatT0=    0 NMatD0=    1 NMtDS0=    0 NMtDT0=    0
 Symmetry not used in FoFCou.
 Requested convergence on RMS density matrix=1.00D-08 within 128 cycles.
 Requested convergence on MAX density matrix=1.00D-06.
 Requested convergence on             energy=1.00D-06.
 No special actions if energy rises.
 SCF Done:  E(RM062X) =  -1497.91185537     A.U. after   10 cycles
            NFock= 10  Conv=0.89D-08     -V/T= 2.0043
 DoSCS=F DFT=T ScalE2(SS,OS)=  1.000000  1.000000
 Range of M.O.s used for correlation:     1   287
 NBasis=   287 NAE=    55 NBE=    55 NFC=     0 NFV=     0
 NROrb=    287 NOA=    55 NOB=    55 NVA=   232 NVB=   232

 **** Warning!!: The largest alpha MO coefficient is  0.24911927D+02

 Symmetrizing basis deriv contribution to polar:
 IMax=3 JMax=2 DiffMx= 0.00D+00
 Calling FoFJK, ICntrl=      2127 FMM=F ISym2X=0 I1Cent= 0 IOpClX= 0 NMat=1 NMatS=1 NMatT=0.
 -------------------------------------------------------------------
 Center     Atomic                   Forces (Hartrees/Bohr)
 Number     Number              X              Y              Z
 -------------------------------------------------------------------
      1       13          -0.000013167   -0.000018905    0.000023607
      2        8           0.000021331   -0.000000043    0.000003508
      3        8           0.000057013    0.000031997    0.000000268
      4        8          -0.000018680    0.000061940   -0.000027587
      5       13          -0.000168107   -0.000119570    0.000011403
      6       13           0.000005646   -0.000028513   -0.000011514
      7       13           0.000291373    0.000516233   -0.000117405
      8        8           0.000013091    0.000035492    0.000005021
      9        8           0.000059382    0.000043247   -0.000000995
     10        8          -0.000299309   -0.000614911    0.000158227
     11        8           0.000019802    0.000165734    0.000037192
     12        1           0.000053110   -0.000037451   -0.000070014
     13        1          -0.000021485   -0.000035251   -0.000011710
 -------------------------------------------------------------------
 Cartesian Forces:  Max     0.000614911 RMS     0.000156845
 IRC-IRC-IRC-IRC-IRC-IRC-IRC-IRC-IRC-IRC-IRC-IRC-IRC-IRC-IRC-IRC-IRC-IRC
 Pt  1 Step number   1 out of a maximum of  20
 Point Number:   1          Path Number:   1
   CHANGE IN THE REACTION COORDINATE =    0.33864
   NET REACTION COORDINATE UP TO THIS POINT =    0.33864
  # OF POINTS ALONG THE PATH =   1
  # OF STEPS =   1

 Calculating another point on the path.
 IRC-IRC-IRC-IRC-IRC-IRC-IRC-IRC-IRC-IRC-IRC-IRC-IRC-IRC-IRC-IRC-IRC-IRC
                          Input orientation:                          
 ---------------------------------------------------------------------
 Center     Atomic      Atomic             Coordinates (Angstroms)
 Number     Number       Type             X           Y           Z
 ---------------------------------------------------------------------
      1         13           0        0.738984   -0.525770    1.491020
      2          8           0       -0.967118   -0.315039    1.567073
      3          8           0        1.277829   -1.784918    0.416559
      4          8           0        1.623026    0.972441    1.311581
      5         13           0        1.178723    1.399192   -0.306358
      6         13           0        0.739149   -1.133515   -1.108375
      7         13           0       -1.748631   -0.180953    0.002374
      8          8           0        1.603644    0.310312   -1.573796
      9          8           0       -0.964274   -1.031941   -1.299638
     10          8           0       -0.447235    2.022249   -0.470285
     11          8           0       -3.365695    0.368468   -0.139774
     12          1           0       -3.844876    0.631269    0.648366
     13          1           0       -0.793284    2.581279    0.233846
 ---------------------------------------------------------------------
                    Distance matrix (angstroms):
                    1          2          3          4          5
     1  Al   0.000000
     2  O    1.720748   0.000000
     3  O    1.740769   2.919591   0.000000
     4  O    1.748818   2.903744   2.919461   0.000000
     5  Al   2.670096   3.324600   3.266647   1.731255   0.000000
     6  Al   2.669497   3.277083   1.743538   3.327533   2.692779
     7  Al   2.919451   1.754145   3.450176   3.796369   3.340895
     8  O    3.292380   4.106694   2.908204   2.960437   1.724128
     9  O    3.308333   2.954994   2.922213   4.186900   3.389609
    10  O    3.427278   3.143887   4.272804   2.926282   1.748947
    11  O    4.506389   3.022198   5.148678   5.230540   4.662819
    12  H    4.802143   3.165598   5.668668   5.518533   5.170856
    13  H    3.685388   3.193176   4.835966   3.096519   2.361772
                    6          7          8          9         10
     6  Al   0.000000
     7  Al   2.886207   0.000000
     8  O    1.746025   3.736764   0.000000
     9  O    1.717134   1.742019   2.910500   0.000000
    10  O    3.431255   2.602141   2.890427   3.206748   0.000000
    11  O    4.477040   1.713757   5.172439   3.012184   3.370703
    12  H    5.216693   2.339070   5.892994   3.854718   3.837990
    13  H    4.236698   2.931927   3.764323   3.928889   0.963361
                   11         12         13
    11  O    0.000000
    12  H    0.959085   0.000000
    13  H    3.413711   3.645076   0.000000
 Symmetry turned off by external request.
 Stoichiometry    Al4H2O7
 Framework group  C1[X(Al4H2O7)]
 Deg. of freedom    33
 Full point group                 C1      NOp   1
 Rotational constants (GHZ):           1.0253149           0.6972691           0.6779501
 Standard basis: Aug-CC-pVDZ (5D, 7F)
   287 basis functions,   643 primitive gaussians,   309 cartesian basis functions
    55 alpha electrons       55 beta electrons
       nuclear repulsion energy      1071.2294054172 Hartrees.
 NAtoms=   13 NActive=   13 NUniq=   13 SFac= 1.00D+00 NAtFMM=   60 NAOKFM=F Big=F
 Integral buffers will be    131072 words long.
 Raffenetti 2 integral format.
 Two-electron integral symmetry is turned off.
 One-electron integrals computed using PRISM.
 NBasis=   287 RedAO= T EigKep=  1.10D-04  NBF=   287
 NBsUse=   287 1.00D-06 EigRej= -1.00D+00 NBFU=   287
 Initial guess from the checkpoint file:  "h2o-ts2-irc.chk"
 B after Tr=    -0.000194   -0.000337    0.000064
         Rot=    1.000000   -0.000026    0.000047   -0.000092 Ang=  -0.01 deg.
 ExpMin= 1.53D-02 ExpMax= 6.42D+04 ExpMxC= 2.19D+03 IAcc=3 IRadAn=         5 AccDes= 0.00D+00
 Harris functional with IExCor= 1009 and IRadAn=       5 diagonalized for initial guess.
 HarFok:  IExCor= 1009 AccDes= 0.00D+00 IRadAn=         5 IDoV= 1 UseB2=F ITyADJ=14
 ICtDFT=  3500011 ScaDFX=  1.000000  1.000000  1.000000  1.000000
 FoFCou: FMM=F IPFlag=           0 FMFlag=      100000 FMFlg1=           0
         NFxFlg=           0 DoJE=T BraDBF=F KetDBF=T FulRan=T
         wScrn=  0.000000 ICntrl=       500 IOpCl=  0 I1Cent=   200000004 NGrid=           0
         NMat0=    1 NMatS0=      1 NMatT0=    0 NMatD0=    1 NMtDS0=    0 NMtDT0=    0
 Symmetry not used in FoFCou.
 Requested convergence on RMS density matrix=1.00D-08 within 128 cycles.
 Requested convergence on MAX density matrix=1.00D-06.
 Requested convergence on             energy=1.00D-06.
 No special actions if energy rises.
 SCF Done:  E(RM062X) =  -1497.91196932     A.U. after   10 cycles
            NFock= 10  Conv=0.95D-08     -V/T= 2.0043
 DoSCS=F DFT=T ScalE2(SS,OS)=  1.000000  1.000000
 Range of M.O.s used for correlation:     1   287
 NBasis=   287 NAE=    55 NBE=    55 NFC=     0 NFV=     0
 NROrb=    287 NOA=    55 NOB=    55 NVA=   232 NVB=   232

 **** Warning!!: The largest alpha MO coefficient is  0.25061292D+02

 Symmetrizing basis deriv contribution to polar:
 IMax=3 JMax=2 DiffMx= 0.00D+00
 Calling FoFJK, ICntrl=      2127 FMM=F ISym2X=0 I1Cent= 0 IOpClX= 0 NMat=1 NMatS=1 NMatT=0.
 -------------------------------------------------------------------
 Center     Atomic                   Forces (Hartrees/Bohr)
 Number     Number              X              Y              Z
 -------------------------------------------------------------------
      1       13          -0.000031237   -0.000046612    0.000064965
      2        8           0.000041506    0.000008755    0.000000521
      3        8           0.000130565    0.000065608   -0.000000182
      4        8          -0.000031580    0.000106397   -0.000037805
      5       13          -0.000343724   -0.000243766    0.000015032
      6       13           0.000042150   -0.000083379   -0.000020192
      7       13           0.000593018    0.001072336   -0.000256814
      8        8           0.000024317    0.000078702   -0.000021309
      9        8           0.000097961    0.000069184   -0.000007017
     10        8          -0.000633240   -0.001227604    0.000286504
     11        8           0.000059147    0.000339648    0.000107453
     12        1           0.000089009   -0.000067962   -0.000125426
     13        1          -0.000037890   -0.000071307   -0.000005729
 -------------------------------------------------------------------
 Cartesian Forces:  Max     0.001227604 RMS     0.000319283
 IRC-IRC-IRC-IRC-IRC-IRC-IRC-IRC-IRC-IRC-IRC-IRC-IRC-IRC-IRC-IRC-IRC-IRC
 Pt  2 Step number   1 out of a maximum of  20
 Point Number:   2          Path Number:   1
   CHANGE IN THE REACTION COORDINATE =    0.33844
   NET REACTION COORDINATE UP TO THIS POINT =    0.67708
  # OF POINTS ALONG THE PATH =   2
  # OF STEPS =   1

 Calculating another point on the path.
 IRC-IRC-IRC-IRC-IRC-IRC-IRC-IRC-IRC-IRC-IRC-IRC-IRC-IRC-IRC-IRC-IRC-IRC
                          Input orientation:                          
 ---------------------------------------------------------------------
 Center     Atomic      Atomic             Coordinates (Angstroms)
 Number     Number       Type             X           Y           Z
 ---------------------------------------------------------------------
      1         13           0        0.739089   -0.526078    1.491920
      2          8           0       -0.966179   -0.314670    1.567248
      3          8           0        1.280997   -1.783405    0.416574
      4          8           0        1.622255    0.974165    1.311500
      5         13           0        1.174914    1.395532   -0.306101
      6         13           0        0.740329   -1.134439   -1.108777
      7         13           0       -1.740639   -0.165401   -0.001494
      8          8           0        1.604135    0.311113   -1.574761
      9          8           0       -0.962159   -1.029954   -1.299877
     10          8           0       -0.465344    1.992578   -0.463791
     11          8           0       -3.361663    0.375709   -0.140244
     12          1           0       -3.843302    0.625479    0.650674
     13          1           0       -0.812172    2.556175    0.236655
 ---------------------------------------------------------------------
                    Distance matrix (angstroms):
                    1          2          3          4          5
     1  Al   0.000000
     2  O    1.719973   0.000000
     3  O    1.740949   2.920793   0.000000
     4  O    1.750218   2.902843   2.919168   0.000000
     5  Al   2.667473   3.319414   3.261771   1.730404   0.000000
     6  Al   2.670904   3.278003   1.743609   3.328925   2.689592
     7  Al   2.917092   1.755853   3.452970   3.785713   3.321106
     8  O    3.294499   4.107352   2.908064   2.961497   1.723280
     9  O    3.307910   2.955005   2.923292   4.185090   3.381961
    10  O    3.408679   3.114378   4.252387   2.923507   1.752648
    11  O    4.504814   3.021671   5.150350   5.225433   4.652750
    12  H    4.799176   3.162566   5.667095   5.516393   5.166323
    13  H    3.671837   3.167956   4.821378   3.095882   2.364358
                    6          7          8          9         10
     6  Al   0.000000
     7  Al   2.884496   0.000000
     8  O    1.747261   3.726896   0.000000
     9  O    1.716363   1.743354   2.908589   0.000000
    10  O    3.412901   2.548915   2.888654   3.175148   0.000000
    11  O    4.477158   1.714576   5.169252   3.013014   3.332808
    12  H    5.215616   2.339231   5.892873   3.853062   3.810720
    13  H    4.223870   2.885436   3.762988   3.904325   0.963616
                   11         12         13
    11  O    0.000000
    12  H    0.959121   0.000000
    13  H    3.375854   3.617561   0.000000
 Symmetry turned off by external request.
 Stoichiometry    Al4H2O7
 Framework group  C1[X(Al4H2O7)]
 Deg. of freedom    33
 Full point group                 C1      NOp   1
 Rotational constants (GHZ):           1.0303024           0.6982418           0.6810866
 Standard basis: Aug-CC-pVDZ (5D, 7F)
   287 basis functions,   643 primitive gaussians,   309 cartesian basis functions
    55 alpha electrons       55 beta electrons
       nuclear repulsion energy      1072.6175215239 Hartrees.
 NAtoms=   13 NActive=   13 NUniq=   13 SFac= 1.00D+00 NAtFMM=   60 NAOKFM=F Big=F
 Integral buffers will be    131072 words long.
 Raffenetti 2 integral format.
 Two-electron integral symmetry is turned off.
 One-electron integrals computed using PRISM.
 NBasis=   287 RedAO= T EigKep=  1.09D-04  NBF=   287
 NBsUse=   287 1.00D-06 EigRej= -1.00D+00 NBFU=   287
 Initial guess from the checkpoint file:  "h2o-ts2-irc.chk"
 B after Tr=    -0.000188   -0.000345    0.000071
         Rot=    1.000000   -0.000022    0.000021   -0.000087 Ang=  -0.01 deg.
 ExpMin= 1.53D-02 ExpMax= 6.42D+04 ExpMxC= 2.19D+03 IAcc=3 IRadAn=         5 AccDes= 0.00D+00
 Harris functional with IExCor= 1009 and IRadAn=       5 diagonalized for initial guess.
 HarFok:  IExCor= 1009 AccDes= 0.00D+00 IRadAn=         5 IDoV= 1 UseB2=F ITyADJ=14
 ICtDFT=  3500011 ScaDFX=  1.000000  1.000000  1.000000  1.000000
 FoFCou: FMM=F IPFlag=           0 FMFlag=      100000 FMFlg1=           0
         NFxFlg=           0 DoJE=T BraDBF=F KetDBF=T FulRan=T
         wScrn=  0.000000 ICntrl=       500 IOpCl=  0 I1Cent=   200000004 NGrid=           0
         NMat0=    1 NMatS0=      1 NMatT0=    0 NMatD0=    1 NMtDS0=    0 NMtDT0=    0
 Symmetry not used in FoFCou.
 Requested convergence on RMS density matrix=1.00D-08 within 128 cycles.
 Requested convergence on MAX density matrix=1.00D-06.
 Requested convergence on             energy=1.00D-06.
 No special actions if energy rises.
 SCF Done:  E(RM062X) =  -1497.91216333     A.U. after   11 cycles
            NFock= 11  Conv=0.20D-08     -V/T= 2.0043
 DoSCS=F DFT=T ScalE2(SS,OS)=  1.000000  1.000000
 Range of M.O.s used for correlation:     1   287
 NBasis=   287 NAE=    55 NBE=    55 NFC=     0 NFV=     0
 NROrb=    287 NOA=    55 NOB=    55 NVA=   232 NVB=   232

 **** Warning!!: The largest alpha MO coefficient is  0.25282027D+02

 Symmetrizing basis deriv contribution to polar:
 IMax=3 JMax=2 DiffMx= 0.00D+00
 Calling FoFJK, ICntrl=      2127 FMM=F ISym2X=0 I1Cent= 0 IOpClX= 0 NMat=1 NMatS=1 NMatT=0.
 -------------------------------------------------------------------
 Center     Atomic                   Forces (Hartrees/Bohr)
 Number     Number              X              Y              Z
 -------------------------------------------------------------------
      1       13          -0.000027758   -0.000067539    0.000101155
      2        8           0.000057187    0.000000308    0.000016019
      3        8           0.000205226    0.000100366   -0.000000098
      4        8          -0.000055765    0.000148679   -0.000042200
      5       13          -0.000472247   -0.000389303    0.000019687
      6       13           0.000078634   -0.000129368   -0.000034136
      7       13           0.000895034    0.001680131   -0.000410508
      8        8           0.000024764    0.000095566   -0.000047894
      9        8           0.000136677    0.000103017   -0.000006042
     10        8          -0.001015014   -0.001850826    0.000419958
     11        8           0.000128037    0.000509257    0.000154103
     12        1           0.000110614   -0.000099823   -0.000167018
     13        1          -0.000065387   -0.000100465   -0.000003027
 -------------------------------------------------------------------
 Cartesian Forces:  Max     0.001850826 RMS     0.000489041
 IRC-IRC-IRC-IRC-IRC-IRC-IRC-IRC-IRC-IRC-IRC-IRC-IRC-IRC-IRC-IRC-IRC-IRC
 Pt  3 Step number   1 out of a maximum of  20
 Point Number:   3          Path Number:   1
   CHANGE IN THE REACTION COORDINATE =    0.33847
   NET REACTION COORDINATE UP TO THIS POINT =    1.01555
  # OF POINTS ALONG THE PATH =   3
  # OF STEPS =   1

 Calculating another point on the path.
 IRC-IRC-IRC-IRC-IRC-IRC-IRC-IRC-IRC-IRC-IRC-IRC-IRC-IRC-IRC-IRC-IRC-IRC
                          Input orientation:                          
 ---------------------------------------------------------------------
 Center     Atomic      Atomic             Coordinates (Angstroms)
 Number     Number       Type             X           Y           Z
 ---------------------------------------------------------------------
      1         13           0        0.739123   -0.526480    1.492850
      2          8           0       -0.965301   -0.314568    1.567507
      3          8           0        1.284301   -1.781850    0.416569
      4          8           0        1.621280    0.975963    1.311367
      5         13           0        1.171090    1.391801   -0.305888
      6         13           0        0.741410   -1.135470   -1.109171
      7         13           0       -1.732427   -0.149449   -0.005394
      8          8           0        1.604417    0.311935   -1.575799
      9          8           0       -0.960114   -1.028092   -1.300005
     10          8           0       -0.483103    1.963130   -0.457405
     11          8           0       -3.357599    0.382859   -0.140567
     12          1           0       -3.842412    0.617623    0.653097
     13          1           0       -0.830832    2.531687    0.238964
 ---------------------------------------------------------------------
                    Distance matrix (angstroms):
                    1          2          3          4          5
     1  Al   0.000000
     2  O    1.719168   0.000000
     3  O    1.741136   2.922034   0.000000
     4  O    1.751705   2.901979   2.918861   0.000000
     5  Al   2.664930   3.314434   3.256811   1.729481   0.000000
     6  Al   2.672337   3.278925   1.743681   3.330364   2.686445
     7  Al   2.914694   1.757772   3.455928   3.774620   3.300933
     8  O    3.296707   4.108081   2.907910   2.962590   1.722369
     9  O    3.307424   2.954957   2.924411   4.183191   3.374341
    10  O    3.390499   3.085562   4.232307   2.920870   1.756624
    11  O    4.503118   3.021094   5.152048   5.220069   4.642662
    12  H    4.796312   3.159572   5.665387   5.514858   5.162771
    13  H    3.659149   3.143927   4.807488   3.095672   2.367255
                    6          7          8          9         10
     6  Al   0.000000
     7  Al   2.882782   0.000000
     8  O    1.748572   3.716662   0.000000
     9  O    1.715555   1.744850   2.906639   0.000000
    10  O    3.394930   2.495618   2.887038   3.144029   0.000000
    11  O    4.477207   1.715461   5.165900   3.013804   3.295507
    12  H    5.214436   2.339668   5.893163   3.851056   3.785308
    13  H    4.211585   2.839203   3.761795   3.880356   0.963900
                   11         12         13
    11  O    0.000000
    12  H    0.959198   0.000000
    13  H    3.338570   3.592319   0.000000
 Symmetry turned off by external request.
 Stoichiometry    Al4H2O7
 Framework group  C1[X(Al4H2O7)]
 Deg. of freedom    33
 Full point group                 C1      NOp   1
 Rotational constants (GHZ):           1.0352453           0.6992486           0.6841790
 Standard basis: Aug-CC-pVDZ (5D, 7F)
   287 basis functions,   643 primitive gaussians,   309 cartesian basis functions
    55 alpha electrons       55 beta electrons
       nuclear repulsion energy      1074.0163180478 Hartrees.
 NAtoms=   13 NActive=   13 NUniq=   13 SFac= 1.00D+00 NAtFMM=   60 NAOKFM=F Big=F
 Integral buffers will be    131072 words long.
 Raffenetti 2 integral format.
 Two-electron integral symmetry is turned off.
 One-electron integrals computed using PRISM.
 NBasis=   287 RedAO= T EigKep=  1.07D-04  NBF=   287
 NBsUse=   287 1.00D-06 EigRej= -1.00D+00 NBFU=   287
 Initial guess from the checkpoint file:  "h2o-ts2-irc.chk"
 B after Tr=    -0.000193   -0.000359    0.000067
         Rot=    1.000000   -0.000019    0.000013   -0.000085 Ang=  -0.01 deg.
 ExpMin= 1.53D-02 ExpMax= 6.42D+04 ExpMxC= 2.19D+03 IAcc=3 IRadAn=         5 AccDes= 0.00D+00
 Harris functional with IExCor= 1009 and IRadAn=       5 diagonalized for initial guess.
 HarFok:  IExCor= 1009 AccDes= 0.00D+00 IRadAn=         5 IDoV= 1 UseB2=F ITyADJ=14
 ICtDFT=  3500011 ScaDFX=  1.000000  1.000000  1.000000  1.000000
 FoFCou: FMM=F IPFlag=           0 FMFlag=      100000 FMFlg1=           0
         NFxFlg=           0 DoJE=T BraDBF=F KetDBF=T FulRan=T
         wScrn=  0.000000 ICntrl=       500 IOpCl=  0 I1Cent=   200000004 NGrid=           0
         NMat0=    1 NMatS0=      1 NMatT0=    0 NMatD0=    1 NMtDS0=    0 NMtDT0=    0
 Symmetry not used in FoFCou.
 Requested convergence on RMS density matrix=1.00D-08 within 128 cycles.
 Requested convergence on MAX density matrix=1.00D-06.
 Requested convergence on             energy=1.00D-06.
 No special actions if energy rises.
 SCF Done:  E(RM062X) =  -1497.91244210     A.U. after   11 cycles
            NFock= 11  Conv=0.20D-08     -V/T= 2.0043
 DoSCS=F DFT=T ScalE2(SS,OS)=  1.000000  1.000000
 Range of M.O.s used for correlation:     1   287
 NBasis=   287 NAE=    55 NBE=    55 NFC=     0 NFV=     0
 NROrb=    287 NOA=    55 NOB=    55 NVA=   232 NVB=   232

 **** Warning!!: The largest alpha MO coefficient is  0.25692345D+02

 Symmetrizing basis deriv contribution to polar:
 IMax=3 JMax=2 DiffMx= 0.00D+00
 Calling FoFJK, ICntrl=      2127 FMM=F ISym2X=0 I1Cent= 0 IOpClX= 0 NMat=1 NMatS=1 NMatT=0.
 -------------------------------------------------------------------
 Center     Atomic                   Forces (Hartrees/Bohr)
 Number     Number              X              Y              Z
 -------------------------------------------------------------------
      1       13          -0.000039729   -0.000095649    0.000141785
      2        8           0.000078346   -0.000006716    0.000022489
      3        8           0.000288942    0.000138717   -0.000001169
      4        8          -0.000091972    0.000195133   -0.000046562
      5       13          -0.000600127   -0.000552294    0.000022939
      6       13           0.000108463   -0.000184769   -0.000047742
      7       13           0.001240804    0.002331050   -0.000569775
      8        8           0.000017702    0.000114245   -0.000077158
      9        8           0.000179740    0.000140280   -0.000001133
     10        8          -0.001431486   -0.002493046    0.000578389
     11        8           0.000173318    0.000698660    0.000239080
     12        1           0.000162783   -0.000148159   -0.000248658
     13        1          -0.000086784   -0.000137451   -0.000012485
 -------------------------------------------------------------------
 Cartesian Forces:  Max     0.002493046 RMS     0.000671457
 IRC-IRC-IRC-IRC-IRC-IRC-IRC-IRC-IRC-IRC-IRC-IRC-IRC-IRC-IRC-IRC-IRC-IRC
 Pt  4 Step number   1 out of a maximum of  20
 Point Number:   4          Path Number:   1
   CHANGE IN THE REACTION COORDINATE =    0.33850
   NET REACTION COORDINATE UP TO THIS POINT =    1.35406
  # OF POINTS ALONG THE PATH =   4
  # OF STEPS =   1

 Calculating another point on the path.
 IRC-IRC-IRC-IRC-IRC-IRC-IRC-IRC-IRC-IRC-IRC-IRC-IRC-IRC-IRC-IRC-IRC-IRC
                          Input orientation:                          
 ---------------------------------------------------------------------
 Center     Atomic      Atomic             Coordinates (Angstroms)
 Number     Number       Type             X           Y           Z
 ---------------------------------------------------------------------
      1         13           0        0.739073   -0.526966    1.493808
      2          8           0       -0.964455   -0.314619    1.567788
      3          8           0        1.287711   -1.780263    0.416553
      4          8           0        1.620120    0.977826    1.311194
      5         13           0        1.167251    1.388002   -0.305701
      6         13           0        0.742399   -1.136608   -1.109556
      7         13           0       -1.723999   -0.133201   -0.009348
      8          8           0        1.604504    0.312783   -1.576890
      9          8           0       -0.958112   -1.026345   -1.300066
     10          8           0       -0.500608    1.933920   -0.451002
     11          8           0       -3.353479    0.389902   -0.140789
     12          1           0       -3.841821    0.608359    0.655387
     13          1           0       -0.849269    2.507850    0.240887
 ---------------------------------------------------------------------
                    Distance matrix (angstroms):
                    1          2          3          4          5
     1  Al   0.000000
     2  O    1.718305   0.000000
     3  O    1.741332   2.923304   0.000000
     4  O    1.753280   2.901083   2.918550   0.000000
     5  Al   2.662456   3.309539   3.251779   1.728492   0.000000
     6  Al   2.673795   3.279815   1.743751   3.331854   2.683344
     7  Al   2.912259   1.759880   3.458989   3.763156   3.280428
     8  O    3.298991   4.108794   2.907751   2.963707   1.721397
     9  O    3.306894   2.954857   2.925560   4.181227   3.366749
    10  O    3.372693   3.057220   4.212588   2.918379   1.760935
    11  O    4.501282   3.020434   5.153727   5.214461   4.632537
    12  H    4.793381   3.156517   5.663449   5.513564   5.159683
    13  H    3.647294   3.120940   4.794315   3.095870   2.370479
                    6          7          8          9         10
     6  Al   0.000000
     7  Al   2.881043   0.000000
     8  O    1.749960   3.706080   0.000000
     9  O    1.714699   1.746494   2.904634   0.000000
    10  O    3.377411   2.442280   2.885690   3.113420   0.000000
    11  O    4.477160   1.716426   5.162358   3.014541   3.258696
    12  H    5.212965   2.340289   5.893461   3.848613   3.760972
    13  H    4.199902   2.793371   3.760803   3.857061   0.964195
                   11         12         13
    11  O    0.000000
    12  H    0.959217   0.000000
    13  H    3.301886   3.568647   0.000000
 Symmetry turned off by external request.
 Stoichiometry    Al4H2O7
 Framework group  C1[X(Al4H2O7)]
 Deg. of freedom    33
 Full point group                 C1      NOp   1
 Rotational constants (GHZ):           1.0401427           0.7003172           0.6872120
 Standard basis: Aug-CC-pVDZ (5D, 7F)
   287 basis functions,   643 primitive gaussians,   309 cartesian basis functions
    55 alpha electrons       55 beta electrons
       nuclear repulsion energy      1075.4296785342 Hartrees.
 NAtoms=   13 NActive=   13 NUniq=   13 SFac= 1.00D+00 NAtFMM=   60 NAOKFM=F Big=F
 Integral buffers will be    131072 words long.
 Raffenetti 2 integral format.
 Two-electron integral symmetry is turned off.
 One-electron integrals computed using PRISM.
 NBasis=   287 RedAO= T EigKep=  1.06D-04  NBF=   287
 NBsUse=   287 1.00D-06 EigRej= -1.00D+00 NBFU=   287
 Initial guess from the checkpoint file:  "h2o-ts2-irc.chk"
 B after Tr=    -0.000194   -0.000366    0.000063
         Rot=    1.000000   -0.000018    0.000010   -0.000083 Ang=  -0.01 deg.
 ExpMin= 1.53D-02 ExpMax= 6.42D+04 ExpMxC= 2.19D+03 IAcc=3 IRadAn=         5 AccDes= 0.00D+00
 Harris functional with IExCor= 1009 and IRadAn=       5 diagonalized for initial guess.
 HarFok:  IExCor= 1009 AccDes= 0.00D+00 IRadAn=         5 IDoV= 1 UseB2=F ITyADJ=14
 ICtDFT=  3500011 ScaDFX=  1.000000  1.000000  1.000000  1.000000
 FoFCou: FMM=F IPFlag=           0 FMFlag=      100000 FMFlg1=           0
         NFxFlg=           0 DoJE=T BraDBF=F KetDBF=T FulRan=T
         wScrn=  0.000000 ICntrl=       500 IOpCl=  0 I1Cent=   200000004 NGrid=           0
         NMat0=    1 NMatS0=      1 NMatT0=    0 NMatD0=    1 NMtDS0=    0 NMtDT0=    0
 Symmetry not used in FoFCou.
 Requested convergence on RMS density matrix=1.00D-08 within 128 cycles.
 Requested convergence on MAX density matrix=1.00D-06.
 Requested convergence on             energy=1.00D-06.
 No special actions if energy rises.
 SCF Done:  E(RM062X) =  -1497.91280662     A.U. after   11 cycles
            NFock= 11  Conv=0.20D-08     -V/T= 2.0043
 DoSCS=F DFT=T ScalE2(SS,OS)=  1.000000  1.000000
 Range of M.O.s used for correlation:     1   287
 NBasis=   287 NAE=    55 NBE=    55 NFC=     0 NFV=     0
 NROrb=    287 NOA=    55 NOB=    55 NVA=   232 NVB=   232

 **** Warning!!: The largest alpha MO coefficient is  0.26292409D+02

 Symmetrizing basis deriv contribution to polar:
 IMax=3 JMax=2 DiffMx= 0.00D+00
 Calling FoFJK, ICntrl=      2127 FMM=F ISym2X=0 I1Cent= 0 IOpClX= 0 NMat=1 NMatS=1 NMatT=0.
 -------------------------------------------------------------------
 Center     Atomic                   Forces (Hartrees/Bohr)
 Number     Number              X              Y              Z
 -------------------------------------------------------------------
      1       13          -0.000048623   -0.000128408    0.000184985
      2        8           0.000092818   -0.000015615    0.000020371
      3        8           0.000380303    0.000180361   -0.000001210
      4        8          -0.000139300    0.000242537   -0.000050486
      5       13          -0.000743760   -0.000714957    0.000024188
      6       13           0.000138624   -0.000248894   -0.000062149
      7       13           0.001550765    0.002927123   -0.000705186
      8        8           0.000000621    0.000132700   -0.000109186
      9        8           0.000222460    0.000171559    0.000004213
     10        8          -0.001793114   -0.003066213    0.000723786
     11        8           0.000257976    0.000878531    0.000278719
     12        1           0.000188816   -0.000186415   -0.000284854
     13        1          -0.000107585   -0.000172308   -0.000023192
 -------------------------------------------------------------------
 Cartesian Forces:  Max     0.003066213 RMS     0.000836646
 IRC-IRC-IRC-IRC-IRC-IRC-IRC-IRC-IRC-IRC-IRC-IRC-IRC-IRC-IRC-IRC-IRC-IRC
 Pt  5 Step number   1 out of a maximum of  20
 Point Number:   5          Path Number:   1
   CHANGE IN THE REACTION COORDINATE =    0.33850
   NET REACTION COORDINATE UP TO THIS POINT =    1.69256
  # OF POINTS ALONG THE PATH =   5
  # OF STEPS =   1

 Calculating another point on the path.
 IRC-IRC-IRC-IRC-IRC-IRC-IRC-IRC-IRC-IRC-IRC-IRC-IRC-IRC-IRC-IRC-IRC-IRC
                          Input orientation:                          
 ---------------------------------------------------------------------
 Center     Atomic      Atomic             Coordinates (Angstroms)
 Number     Number       Type             X           Y           Z
 ---------------------------------------------------------------------
      1         13           0        0.738967   -0.527546    1.494818
      2          8           0       -0.963633   -0.314815    1.568049
      3          8           0        1.291333   -1.778604    0.416534
      4          8           0        1.618712    0.979780    1.311001
      5         13           0        1.163279    1.384081   -0.305538
      6         13           0        0.743357   -1.137880   -1.109941
      7         13           0       -1.715427   -0.116815   -0.013322
      8          8           0        1.604390    0.313658   -1.578057
      9          8           0       -0.956105   -1.024702   -1.300057
     10          8           0       -0.517899    1.904988   -0.444605
     11          8           0       -3.349174    0.397154   -0.140943
     12          1           0       -3.841489    0.597369    0.657691
     13          1           0       -0.867696    2.484547    0.242417
 ---------------------------------------------------------------------
                    Distance matrix (angstroms):
                    1          2          3          4          5
     1  Al   0.000000
     2  O    1.717400   0.000000
     3  O    1.741537   2.924643   0.000000
     4  O    1.754928   2.900095   2.918207   0.000000
     5  Al   2.660008   3.304593   3.246593   1.727448   0.000000
     6  Al   2.675313   3.280683   1.743827   3.333421   2.680241
     7  Al   2.909851   1.762138   3.462213   3.751378   3.259606
     8  O    3.301385   4.109465   2.907569   2.964891   1.720374
     9  O    3.306321   2.954662   2.926778   4.179145   3.359032
    10  O    3.355338   3.029353   4.193296   2.916036   1.765515
    11  O    4.499297   3.019662   5.155483   5.208405   4.622051
    12  H    4.790281   3.153234   5.661207   5.512426   5.156979
    13  H    3.636286   3.098859   4.781859   3.096517   2.374055
                    6          7          8          9         10
     6  Al   0.000000
     7  Al   2.879369   0.000000
     8  O    1.751420   3.695252   0.000000
     9  O    1.713804   1.748289   2.902520   0.000000
    10  O    3.360430   2.389093   2.884641   3.083327   0.000000
    11  O    4.477063   1.717434   5.158494   3.015294   3.222094
    12  H    5.211183   2.341037   5.893781   3.845690   3.737803
    13  H    4.188836   2.747933   3.760065   3.834302   0.964492
                   11         12         13
    11  O    0.000000
    12  H    0.959310   0.000000
    13  H    3.265258   3.546454   0.000000
 Symmetry turned off by external request.
 Stoichiometry    Al4H2O7
 Framework group  C1[X(Al4H2O7)]
 Deg. of freedom    33
 Full point group                 C1      NOp   1
 Rotational constants (GHZ):           1.0449809           0.7014837           0.6901668
 Standard basis: Aug-CC-pVDZ (5D, 7F)
   287 basis functions,   643 primitive gaussians,   309 cartesian basis functions
    55 alpha electrons       55 beta electrons
       nuclear repulsion energy      1076.8596455428 Hartrees.
 NAtoms=   13 NActive=   13 NUniq=   13 SFac= 1.00D+00 NAtFMM=   60 NAOKFM=F Big=F
 Integral buffers will be    131072 words long.
 Raffenetti 2 integral format.
 Two-electron integral symmetry is turned off.
 One-electron integrals computed using PRISM.
 NBasis=   287 RedAO= T EigKep=  1.05D-04  NBF=   287
 NBsUse=   287 1.00D-06 EigRej= -1.00D+00 NBFU=   287
 Initial guess from the checkpoint file:  "h2o-ts2-irc.chk"
 B after Tr=    -0.000195   -0.000374    0.000060
         Rot=    1.000000   -0.000017    0.000008   -0.000083 Ang=  -0.01 deg.
 ExpMin= 1.53D-02 ExpMax= 6.42D+04 ExpMxC= 2.19D+03 IAcc=3 IRadAn=         5 AccDes= 0.00D+00
 Harris functional with IExCor= 1009 and IRadAn=       5 diagonalized for initial guess.
 HarFok:  IExCor= 1009 AccDes= 0.00D+00 IRadAn=         5 IDoV= 1 UseB2=F ITyADJ=14
 ICtDFT=  3500011 ScaDFX=  1.000000  1.000000  1.000000  1.000000
 FoFCou: FMM=F IPFlag=           0 FMFlag=      100000 FMFlg1=           0
         NFxFlg=           0 DoJE=T BraDBF=F KetDBF=T FulRan=T
         wScrn=  0.000000 ICntrl=       500 IOpCl=  0 I1Cent=   200000004 NGrid=           0
         NMat0=    1 NMatS0=      1 NMatT0=    0 NMatD0=    1 NMtDS0=    0 NMtDT0=    0
 Symmetry not used in FoFCou.
 Requested convergence on RMS density matrix=1.00D-08 within 128 cycles.
 Requested convergence on MAX density matrix=1.00D-06.
 Requested convergence on             energy=1.00D-06.
 No special actions if energy rises.
 SCF Done:  E(RM062X) =  -1497.91324096     A.U. after   11 cycles
            NFock= 11  Conv=0.19D-08     -V/T= 2.0043
 DoSCS=F DFT=T ScalE2(SS,OS)=  1.000000  1.000000
 Range of M.O.s used for correlation:     1   287
 NBasis=   287 NAE=    55 NBE=    55 NFC=     0 NFV=     0
 NROrb=    287 NOA=    55 NOB=    55 NVA=   232 NVB=   232

 **** Warning!!: The largest alpha MO coefficient is  0.27120299D+02

 Symmetrizing basis deriv contribution to polar:
 IMax=3 JMax=2 DiffMx= 0.00D+00
 Calling FoFJK, ICntrl=      2127 FMM=F ISym2X=0 I1Cent= 0 IOpClX= 0 NMat=1 NMatS=1 NMatT=0.
 -------------------------------------------------------------------
 Center     Atomic                   Forces (Hartrees/Bohr)
 Number     Number              X              Y              Z
 -------------------------------------------------------------------
      1       13          -0.000050420   -0.000159405    0.000224396
      2        8           0.000096012   -0.000025259    0.000006716
      3        8           0.000469394    0.000219558   -0.000000427
      4        8          -0.000197736    0.000281383   -0.000051966
      5       13          -0.000881396   -0.000847404    0.000021964
      6       13           0.000173338   -0.000311224   -0.000073597
      7       13           0.001807520    0.003344270   -0.000798907
      8        8          -0.000025458    0.000142432   -0.000141245
      9        8           0.000258726    0.000206618    0.000019657
     10        8          -0.002076729   -0.003494247    0.000827919
     11        8           0.000287706    0.001078595    0.000389978
     12        1           0.000258621   -0.000243643   -0.000389562
     13        1          -0.000119578   -0.000191674   -0.000034926
 -------------------------------------------------------------------
 Cartesian Forces:  Max     0.003494247 RMS     0.000964530
 IRC-IRC-IRC-IRC-IRC-IRC-IRC-IRC-IRC-IRC-IRC-IRC-IRC-IRC-IRC-IRC-IRC-IRC
 Pt  6 Step number   1 out of a maximum of  20
 Point Number:   6          Path Number:   1
   CHANGE IN THE REACTION COORDINATE =    0.33851
   NET REACTION COORDINATE UP TO THIS POINT =    2.03106
  # OF POINTS ALONG THE PATH =   6
  # OF STEPS =   1

 Calculating another point on the path.
 IRC-IRC-IRC-IRC-IRC-IRC-IRC-IRC-IRC-IRC-IRC-IRC-IRC-IRC-IRC-IRC-IRC-IRC
                          Input orientation:                          
 ---------------------------------------------------------------------
 Center     Atomic      Atomic             Coordinates (Angstroms)
 Number     Number       Type             X           Y           Z
 ---------------------------------------------------------------------
      1         13           0        0.738827   -0.528221    1.495889
      2          8           0       -0.962830   -0.315144    1.568257
      3          8           0        1.295235   -1.776854    0.416520
      4          8           0        1.616991    0.981836    1.310794
      5         13           0        1.159073    1.380036   -0.305410
      6         13           0        0.744357   -1.139293   -1.110330
      7         13           0       -1.706752   -0.100511   -0.017257
      8          8           0        1.604082    0.314556   -1.579311
      9          8           0       -0.954020   -1.023052   -1.299973
     10          8           0       -0.535109    1.876289   -0.438276
     11          8           0       -3.344582    0.404845   -0.141005
     12          1           0       -3.840983    0.585384    0.659812
     13          1           0       -0.886173    2.462037    0.243274
 ---------------------------------------------------------------------
                    Distance matrix (angstroms):
                    1          2          3          4          5
     1  Al   0.000000
     2  O    1.716472   0.000000
     3  O    1.741756   2.926081   0.000000
     4  O    1.756617   2.898952   2.917812   0.000000
     5  Al   2.657579   3.299506   3.241246   1.726374   0.000000
     6  Al   2.676904   3.281545   1.743909   3.335044   2.677107
     7  Al   2.907473   1.764467   3.465575   3.739314   3.238519
     8  O    3.303906   4.110079   2.907356   2.966166   1.719333
     9  O    3.305667   2.954312   2.928091   4.176815   3.350993
    10  O    3.338499   3.001916   4.174481   2.913902   1.770359
    11  O    4.497139   3.018725   5.157378   5.201716   4.610958
    12  H    4.786836   3.149602   5.658630   5.510938   5.153997
    13  H    3.626473   3.078018   4.770403   3.097810   2.377985
                    6          7          8          9         10
     6  Al   0.000000
     7  Al   2.877814   0.000000
     8  O    1.752925   3.684280   0.000000
     9  O    1.712881   1.750157   2.900192   0.000000
    10  O    3.344013   2.336182   2.883940   3.053554   0.000000
    11  O    4.476982   1.718483   5.154236   3.016104   3.185381
    12  H    5.208959   2.341755   5.893705   3.842184   3.714975
    13  H    4.178570   2.703309   3.759636   3.812094   0.964809
                   11         12         13
    11  O    0.000000
    12  H    0.959331   0.000000
    13  H    3.228541   3.525086   0.000000
 Symmetry turned off by external request.
 Stoichiometry    Al4H2O7
 Framework group  C1[X(Al4H2O7)]
 Deg. of freedom    33
 Full point group                 C1      NOp   1
 Rotational constants (GHZ):           1.0497606           0.7027997           0.6930147
 Standard basis: Aug-CC-pVDZ (5D, 7F)
   287 basis functions,   643 primitive gaussians,   309 cartesian basis functions
    55 alpha electrons       55 beta electrons
       nuclear repulsion energy      1078.3126218778 Hartrees.
 NAtoms=   13 NActive=   13 NUniq=   13 SFac= 1.00D+00 NAtFMM=   60 NAOKFM=F Big=F
 Integral buffers will be    131072 words long.
 Raffenetti 2 integral format.
 Two-electron integral symmetry is turned off.
 One-electron integrals computed using PRISM.
 NBasis=   287 RedAO= T EigKep=  1.04D-04  NBF=   287
 NBsUse=   287 1.00D-06 EigRej= -1.00D+00 NBFU=   287
 Initial guess from the checkpoint file:  "h2o-ts2-irc.chk"
 B after Tr=    -0.000193   -0.000372    0.000052
         Rot=    1.000000   -0.000011    0.000006   -0.000086 Ang=  -0.01 deg.
 ExpMin= 1.53D-02 ExpMax= 6.42D+04 ExpMxC= 2.19D+03 IAcc=3 IRadAn=         5 AccDes= 0.00D+00
 Harris functional with IExCor= 1009 and IRadAn=       5 diagonalized for initial guess.
 HarFok:  IExCor= 1009 AccDes= 0.00D+00 IRadAn=         5 IDoV= 1 UseB2=F ITyADJ=14
 ICtDFT=  3500011 ScaDFX=  1.000000  1.000000  1.000000  1.000000
 FoFCou: FMM=F IPFlag=           0 FMFlag=      100000 FMFlg1=           0
         NFxFlg=           0 DoJE=T BraDBF=F KetDBF=T FulRan=T
         wScrn=  0.000000 ICntrl=       500 IOpCl=  0 I1Cent=   200000004 NGrid=           0
         NMat0=    1 NMatS0=      1 NMatT0=    0 NMatD0=    1 NMtDS0=    0 NMtDT0=    0
 Symmetry not used in FoFCou.
 Requested convergence on RMS density matrix=1.00D-08 within 128 cycles.
 Requested convergence on MAX density matrix=1.00D-06.
 Requested convergence on             energy=1.00D-06.
 No special actions if energy rises.
 SCF Done:  E(RM062X) =  -1497.91372890     A.U. after   11 cycles
            NFock= 11  Conv=0.19D-08     -V/T= 2.0043
 DoSCS=F DFT=T ScalE2(SS,OS)=  1.000000  1.000000
 Range of M.O.s used for correlation:     1   287
 NBasis=   287 NAE=    55 NBE=    55 NFC=     0 NFV=     0
 NROrb=    287 NOA=    55 NOB=    55 NVA=   232 NVB=   232

 **** Warning!!: The largest alpha MO coefficient is  0.28089929D+02

 Symmetrizing basis deriv contribution to polar:
 IMax=3 JMax=2 DiffMx= 0.00D+00
 Calling FoFJK, ICntrl=      2127 FMM=F ISym2X=0 I1Cent= 0 IOpClX= 0 NMat=1 NMatS=1 NMatT=0.
 -------------------------------------------------------------------
 Center     Atomic                   Forces (Hartrees/Bohr)
 Number     Number              X              Y              Z
 -------------------------------------------------------------------
      1       13          -0.000060931   -0.000190794    0.000260808
      2        8           0.000106083   -0.000069483    0.000027423
      3        8           0.000551492    0.000252205    0.000000130
      4        8          -0.000260878    0.000320142   -0.000059202
      5       13          -0.001008852   -0.000954772    0.000014545
      6       13           0.000208881   -0.000370104   -0.000078774
      7       13           0.001996508    0.003659180   -0.000901539
      8        8          -0.000055326    0.000154408   -0.000166937
      9        8           0.000295110    0.000221209    0.000031050
     10        8          -0.002277463   -0.003776824    0.000919430
     11        8           0.000340330    0.001267080    0.000445645
     12        1           0.000287722   -0.000297752   -0.000430710
     13        1          -0.000122675   -0.000214496   -0.000061868
 -------------------------------------------------------------------
 Cartesian Forces:  Max     0.003776824 RMS     0.001059774
 IRC-IRC-IRC-IRC-IRC-IRC-IRC-IRC-IRC-IRC-IRC-IRC-IRC-IRC-IRC-IRC-IRC-IRC
 Pt  7 Step number   1 out of a maximum of  20
 Point Number:   7          Path Number:   1
   CHANGE IN THE REACTION COORDINATE =    0.33848
   NET REACTION COORDINATE UP TO THIS POINT =    2.36954
  # OF POINTS ALONG THE PATH =   7
  # OF STEPS =   1

 Calculating another point on the path.
 IRC-IRC-IRC-IRC-IRC-IRC-IRC-IRC-IRC-IRC-IRC-IRC-IRC-IRC-IRC-IRC-IRC-IRC
                          Input orientation:                          
 ---------------------------------------------------------------------
 Center     Atomic      Atomic             Coordinates (Angstroms)
 Number     Number       Type             X           Y           Z
 ---------------------------------------------------------------------
      1         13           0        0.738631   -0.528985    1.497029
      2          8           0       -0.962098   -0.315826    1.568497
      3          8           0        1.299429   -1.775011    0.416523
      4          8           0        1.614928    0.984009    1.310546
      5         13           0        1.154649    1.375893   -0.305335
      6         13           0        0.745430   -1.140852   -1.110701
      7         13           0       -1.697994   -0.084278   -0.021239
      8          8           0        1.603575    0.315483   -1.580651
      9          8           0       -0.951830   -1.021450   -1.299832
     10          8           0       -0.552140    1.847960   -0.432021
     11          8           0       -3.339717    0.413183   -0.140935
     12          1           0       -3.840892    0.569870    0.662453
     13          1           0       -0.904827    2.440324    0.243377
 ---------------------------------------------------------------------
                    Distance matrix (angstroms):
                    1          2          3          4          5
     1  Al   0.000000
     2  O    1.715524   0.000000
     3  O    1.742002   2.927587   0.000000
     4  O    1.758358   2.897787   2.917363   0.000000
     5  Al   2.655212   3.294506   3.235775   1.725254   0.000000
     6  Al   2.678560   3.282441   1.743985   3.336689   2.673964
     7  Al   2.905176   1.767037   3.469115   3.726974   3.217201
     8  O    3.306565   4.110762   2.907125   2.967503   1.718265
     9  O    3.304938   2.953865   2.929487   4.174228   3.342683
    10  O    3.322227   2.975249   4.156231   2.911895   1.775394
    11  O    4.494834   3.017728   5.159518   5.194337   4.599257
    12  H    4.782890   3.145287   5.655250   5.509765   5.151865
    13  H    3.617927   3.058690   4.760018   3.099817   2.382339
                    6          7          8          9         10
     6  Al   0.000000
     7  Al   2.876386   0.000000
     8  O    1.754475   3.673137   0.000000
     9  O    1.711934   1.752099   2.897645   0.000000
    10  O    3.328256   2.283696   2.883564   3.024295   0.000000
    11  O    4.477041   1.719607   5.149609   3.017154   3.148635
    12  H    5.206246   2.342511   5.893934   3.837909   3.694222
    13  H    4.169137   2.659465   3.759536   3.790460   0.965115
                   11         12         13
    11  O    0.000000
    12  H    0.959771   0.000000
    13  H    3.191502   3.506380   0.000000
 Symmetry turned off by external request.
 Stoichiometry    Al4H2O7
 Framework group  C1[X(Al4H2O7)]
 Deg. of freedom    33
 Full point group                 C1      NOp   1
 Rotational constants (GHZ):           1.0544379           0.7043077           0.6956809
 Standard basis: Aug-CC-pVDZ (5D, 7F)
   287 basis functions,   643 primitive gaussians,   309 cartesian basis functions
    55 alpha electrons       55 beta electrons
       nuclear repulsion energy      1079.7744670221 Hartrees.
 NAtoms=   13 NActive=   13 NUniq=   13 SFac= 1.00D+00 NAtFMM=   60 NAOKFM=F Big=F
 Integral buffers will be    131072 words long.
 Raffenetti 2 integral format.
 Two-electron integral symmetry is turned off.
 One-electron integrals computed using PRISM.
 NBasis=   287 RedAO= T EigKep=  1.02D-04  NBF=   287
 NBsUse=   287 1.00D-06 EigRej= -1.00D+00 NBFU=   287
 Initial guess from the checkpoint file:  "h2o-ts2-irc.chk"
 B after Tr=    -0.000197   -0.000391    0.000050
         Rot=    1.000000   -0.000013    0.000005   -0.000096 Ang=  -0.01 deg.
 ExpMin= 1.53D-02 ExpMax= 6.42D+04 ExpMxC= 2.19D+03 IAcc=3 IRadAn=         5 AccDes= 0.00D+00
 Harris functional with IExCor= 1009 and IRadAn=       5 diagonalized for initial guess.
 HarFok:  IExCor= 1009 AccDes= 0.00D+00 IRadAn=         5 IDoV= 1 UseB2=F ITyADJ=14
 ICtDFT=  3500011 ScaDFX=  1.000000  1.000000  1.000000  1.000000
 FoFCou: FMM=F IPFlag=           0 FMFlag=      100000 FMFlg1=           0
         NFxFlg=           0 DoJE=T BraDBF=F KetDBF=T FulRan=T
         wScrn=  0.000000 ICntrl=       500 IOpCl=  0 I1Cent=   200000004 NGrid=           0
         NMat0=    1 NMatS0=      1 NMatT0=    0 NMatD0=    1 NMtDS0=    0 NMtDT0=    0
 Symmetry not used in FoFCou.
 Requested convergence on RMS density matrix=1.00D-08 within 128 cycles.
 Requested convergence on MAX density matrix=1.00D-06.
 Requested convergence on             energy=1.00D-06.
 No special actions if energy rises.
 SCF Done:  E(RM062X) =  -1497.91425193     A.U. after   11 cycles
            NFock= 11  Conv=0.21D-08     -V/T= 2.0043
 DoSCS=F DFT=T ScalE2(SS,OS)=  1.000000  1.000000
 Range of M.O.s used for correlation:     1   287
 NBasis=   287 NAE=    55 NBE=    55 NFC=     0 NFV=     0
 NROrb=    287 NOA=    55 NOB=    55 NVA=   232 NVB=   232

 **** Warning!!: The largest alpha MO coefficient is  0.29129982D+02

 Symmetrizing basis deriv contribution to polar:
 IMax=3 JMax=2 DiffMx= 0.00D+00
 Calling FoFJK, ICntrl=      2127 FMM=F ISym2X=0 I1Cent= 0 IOpClX= 0 NMat=1 NMatS=1 NMatT=0.
[...]
         NMat0=    1 NMatS0=      1 NMatT0=    0 NMatD0=    1 NMtDS0=    0 NMtDT0=    0
 Symmetry not used in FoFCou.
 Requested convergence on RMS density matrix=1.00D-08 within 128 cycles.
 Requested convergence on MAX density matrix=1.00D-06.
 Requested convergence on             energy=1.00D-06.
 No special actions if energy rises.
 SCF Done:  E(RM062X) =  -1497.93583802     A.U. after    9 cycles
            NFock=  9  Conv=0.81D-08     -V/T= 2.0042
 DoSCS=F DFT=T ScalE2(SS,OS)=  1.000000  1.000000
 Range of M.O.s used for correlation:     1   287
 NBasis=   287 NAE=    55 NBE=    55 NFC=     0 NFV=     0
 NROrb=    287 NOA=    55 NOB=    55 NVA=   232 NVB=   232

 **** Warning!!: The largest alpha MO coefficient is  0.20825207D+02

 Symmetrizing basis deriv contribution to polar:
 IMax=3 JMax=2 DiffMx= 0.00D+00
 Calling FoFJK, ICntrl=      2127 FMM=F ISym2X=0 I1Cent= 0 IOpClX= 0 NMat=1 NMatS=1 NMatT=0.
 -------------------------------------------------------------------
 Center     Atomic                   Forces (Hartrees/Bohr)
 Number     Number              X              Y              Z
 -------------------------------------------------------------------
      1       13          -0.000820889    0.000536520   -0.000186275
      2        8          -0.000390411   -0.000508870    0.000177152
      3        8          -0.000069575    0.000557616   -0.000131343
      4        8          -0.000817805    0.000622411   -0.000255680
      5       13           0.000808353    0.000317666   -0.000106689
      6       13          -0.000727637    0.000647345   -0.000109238
      7       13          -0.000841023   -0.001831439    0.000444548
      8        8          -0.000723310    0.000755968    0.000013384
      9        8          -0.000339929   -0.000371134    0.000098271
     10        8           0.004737778    0.000265390   -0.001823820
     11        8          -0.000793222   -0.002179329    0.000562470
     12        1           0.000046275   -0.000059564   -0.000051720
     13        1          -0.000068606    0.001247419    0.001368940
 -------------------------------------------------------------------
 Cartesian Forces:  Max     0.004737778 RMS     0.001076775
 IRC-IRC-IRC-IRC-IRC-IRC-IRC-IRC-IRC-IRC-IRC-IRC-IRC-IRC-IRC-IRC-IRC-IRC
 Pt 68 Step number   1 out of a maximum of  20
 Point Number:  50          Path Number:   2
   CHANGE IN THE REACTION COORDINATE =    0.33384
   NET REACTION COORDINATE UP TO THIS POINT =   16.83293
  # OF POINTS ALONG THE PATH =  68
  # OF STEPS =   1

 Maximum number of steps reached.
 Calculation of REVERSE path complete.
 Reaction path calculation complete.
 
 Energies reported relative to the TS energy of       -1497.911818
 --------------------------------------------------------------------------
    Summary of reaction path following
 --------------------------------------------------------------------------
                        Energy    RxCoord
   1                   -0.02402 -16.83293
   2                   -0.02351 -16.49909
   3                   -0.02301 -16.16371
   4                   -0.02245 -15.83985
   5                   -0.02203 -15.50692
   6                   -0.02150 -15.17821
   7                   -0.02102 -14.84233
   8                   -0.02049 -14.50646
   9                   -0.01996 -14.16899
  10                   -0.01941 -13.83148
  11                   -0.01886 -13.49381
  12                   -0.01831 -13.15608
  13                   -0.01774 -12.81857
  14                   -0.01718 -12.48083
  15                   -0.01661 -12.14351
  16                   -0.01604 -11.80565
  17                   -0.01546 -11.46830
  18                   -0.01488 -11.13038
  19                   -0.01429 -10.79327
  20                   -0.01370 -10.45578
  21                   -0.01310 -10.12090
  22                   -0.01252  -9.78482
  23                   -0.01190  -9.45533
  24                   -0.01137  -9.12044
  25                   -0.01077  -8.78919
  26                   -0.01024  -8.45236
  27                   -0.00965  -8.11521
  28                   -0.00907  -7.77709
  29                   -0.00849  -7.43870
  30                   -0.00791  -7.10025
  31                   -0.00734  -6.76173
  32                   -0.00677  -6.42321
  33                   -0.00622  -6.08467
  34                   -0.00567  -5.74621
  35                   -0.00514  -5.40784
  36                   -0.00463  -5.07019
  37                   -0.00413  -4.73528
  38                   -0.00368  -4.39923
  39                   -0.00323  -4.06194
  40                   -0.00280  -3.72362
  41                   -0.00238  -3.38513
  42                   -0.00198  -3.04660
  43                   -0.00162  -2.70806
  44                   -0.00128  -2.36952
  45                   -0.00097  -2.03099
  46                   -0.00070  -1.69247
  47                   -0.00047  -1.35396
  48                   -0.00027  -1.01548
  49                   -0.00013  -0.67703
  50                   -0.00003  -0.33864
  51                    0.00000   0.00000
  52                   -0.00004   0.33864
  53                   -0.00015   0.67708
  54                   -0.00035   1.01555
  55                   -0.00062   1.35406
  56                   -0.00099   1.69256
  57                   -0.00142   2.03106
  58                   -0.00191   2.36954
  59                   -0.00243   2.70801
  60                   -0.00295   3.04628
  61                   -0.00340   3.38474
  62                   -0.00362   3.71731
  63                   -0.00392   4.02999
  64                   -0.00406   4.34501
  65                   -0.00382   4.67040
  66                   -0.00418   4.94634
  67                   -0.00399   5.25664
  68                   -0.00429   5.53418
  69                   -0.00426   5.85307
 --------------------------------------------------------------------------
 
 Total number of points:                   68
 Total number of gradient calculations:    69
 Total number of Hessian calculations:      1
 IRC-IRC-IRC-IRC-IRC-IRC-IRC-IRC-IRC-IRC-IRC-IRC-IRC-IRC-IRC-IRC-IRC-IRC
                          Input orientation:                          
 ---------------------------------------------------------------------
 Center     Atomic      Atomic             Coordinates (Angstroms)
 Number     Number       Type             X           Y           Z
 ---------------------------------------------------------------------
      1         13           0        0.625925   -0.492686    1.458625
      2          8           0       -1.095513   -0.476470    1.600769
      3          8           0        1.213612   -1.738085    0.400484
      4          8           0        1.434100    1.024844    1.309117
      5         13           0        1.366484    1.589643   -0.333810
      6         13           0        0.618115   -1.086577   -1.098142
      7         13           0       -1.980945   -0.696479    0.122175
      8          8           0        1.390670    0.380988   -1.574184
      9          8           0       -1.093003   -1.207514   -1.273004
     10          8           0        0.919316    3.189517   -0.730267
     11          8           0       -3.625733   -0.262196   -0.027559
     12          1           0       -4.112217    0.052702    0.737075
     13          1           0        0.851164    3.855963   -0.045829
 ---------------------------------------------------------------------
                    Distance matrix (angstroms):
                    1          2          3          4          5
     1  Al   0.000000
     2  O    1.727373   0.000000
     3  O    1.736680   2.892130   0.000000
     4  O    1.725803   2.956002   2.916849   0.000000
     5  Al   2.845583   3.751380   3.411207   1.738613   0.000000
     6  Al   2.624847   3.254668   1.739241   3.304364   2.882085
     7  Al   2.936563   1.737421   3.371586   4.004287   4.079162
     8  O    3.247471   4.122702   2.901919   2.954634   1.732040
     9  O    3.305675   2.965300   2.898713   4.247002   3.841257
    10  O    4.293710   4.788813   5.064234   3.018261   1.707845
    11  O    4.509819   3.016518   5.077473   5.389350   5.333417
    12  H    4.823699   3.182215   5.628913   5.659852   5.790091
    13  H    4.607045   5.027009   5.623516   3.192323   2.341942
                    6          7          8          9         10
     6  Al   0.000000
     7  Al   2.897664   0.000000
     8  O    1.725458   3.925094   0.000000
     9  O    1.724275   1.730932   2.963559   0.000000
    10  O    4.302445   4.923326   2.970221   4.865992   0.000000
    11  O    4.453762   1.707733   5.288671   2.976489   5.750269
    12  H    5.200193   2.341302   5.977580   3.839820   6.108112
    13  H    5.058693   5.364121   3.834370   5.560984   0.957732
                   11         12         13
    11  O    0.000000
    12  H    0.959422   0.000000
    13  H    6.082942   6.301816   0.000000
 Symmetry turned off by external request.
 Stoichiometry    Al4H2O7
 Framework group  C1[X(Al4H2O7)]
 Deg. of freedom    33
 Full point group                 C1      NOp   1
 Rotational constants (GHZ):           0.9627941           0.5708200           0.5363852

 **********************************************************************

            Population analysis using the SCF Density.

 **********************************************************************

 Alpha  occ. eigenvalues --  -56.91259 -56.91181 -56.90409 -56.90179 -19.63814
 Alpha  occ. eigenvalues --  -19.63623 -19.63392 -19.63247 -19.63132 -19.63099
 Alpha  occ. eigenvalues --  -19.62243  -4.42212  -4.42120  -4.41327  -4.41091
 Alpha  occ. eigenvalues --   -2.92715  -2.92616  -2.92146  -2.92118  -2.92053
 Alpha  occ. eigenvalues --   -2.92026  -2.91764  -2.91511  -2.91355  -2.91309
 Alpha  occ. eigenvalues --   -2.91136  -2.91088  -1.10242  -1.10017  -1.07978
 Alpha  occ. eigenvalues --   -1.06047  -1.05925  -1.04787  -1.04464  -0.58492
 Alpha  occ. eigenvalues --   -0.58167  -0.53054  -0.52128  -0.50588  -0.49744
 Alpha  occ. eigenvalues --   -0.47038  -0.46360  -0.46158  -0.44353  -0.42775
 Alpha  occ. eigenvalues --   -0.42220  -0.41871  -0.41835  -0.40317  -0.39840
 Alpha  occ. eigenvalues --   -0.39640  -0.39584  -0.39251  -0.38185  -0.36855
 Alpha virt. eigenvalues --   -0.07799  -0.04075  -0.01952  -0.01460   0.00469
 Alpha virt. eigenvalues --    0.00794   0.01122   0.01376   0.01627   0.02088
 Alpha virt. eigenvalues --    0.02177   0.02460   0.02911   0.03593   0.03716
 Alpha virt. eigenvalues --    0.03938   0.04124   0.06024   0.06123   0.06875
 Alpha virt. eigenvalues --    0.07306   0.08517   0.08819   0.10050   0.10499
 Alpha virt. eigenvalues --    0.10791   0.10960   0.11091   0.11452   0.11518
 Alpha virt. eigenvalues --    0.12583   0.12873   0.13502   0.13835   0.14205
 Alpha virt. eigenvalues --    0.14741   0.15323   0.15491   0.15665   0.16686
 Alpha virt. eigenvalues --    0.17157   0.17782   0.18041   0.18641   0.19374
 Alpha virt. eigenvalues --    0.19926   0.20388   0.21575   0.21870   0.22676
 Alpha virt. eigenvalues --    0.23345   0.23656   0.24379   0.24615   0.24778
 Alpha virt. eigenvalues --    0.25444   0.25714   0.26289   0.26820   0.27136
 Alpha virt. eigenvalues --    0.27657   0.27793   0.28050   0.28746   0.30326
 Alpha virt. eigenvalues --    0.30729   0.31109   0.31878   0.32058   0.32544
 Alpha virt. eigenvalues --    0.33851   0.34452   0.35070   0.35525   0.35886
 Alpha virt. eigenvalues --    0.36728   0.37435   0.37566   0.38285   0.39019
 Alpha virt. eigenvalues --    0.39798   0.40821   0.40922   0.41875   0.42348
 Alpha virt. eigenvalues --    0.43041   0.43675   0.45195   0.45447   0.45819
 Alpha virt. eigenvalues --    0.46689   0.46754   0.47528   0.48568   0.49306
 Alpha virt. eigenvalues --    0.50556   0.50986   0.51397   0.52291   0.53124
 Alpha virt. eigenvalues --    0.54181   0.54700   0.54953   0.55549   0.56422
 Alpha virt. eigenvalues --    0.56580   0.57736   0.59401   0.60946   0.62056
 Alpha virt. eigenvalues --    0.62737   0.63508   0.64212   0.64595   0.71492
 Alpha virt. eigenvalues --    0.76633   0.77540   0.77991   0.79927   0.81047
 Alpha virt. eigenvalues --    0.83285   0.84396   0.85111   0.87066   0.89009
 Alpha virt. eigenvalues --    0.89931   0.93334   0.94472   0.94818   0.97005
 Alpha virt. eigenvalues --    0.97582   0.98944   1.01849   1.02396   1.02573
 Alpha virt. eigenvalues --    1.04785   1.05199   1.05976   1.07068   1.08034
 Alpha virt. eigenvalues --    1.08862   1.10358   1.10969   1.11692   1.12786
 Alpha virt. eigenvalues --    1.13441   1.15345   1.17625   1.18281   1.20028
 Alpha virt. eigenvalues --    1.20442   1.21574   1.24773   1.27546   1.29472
 Alpha virt. eigenvalues --    1.32851   1.34040   1.35602   1.36347   1.37527
 Alpha virt. eigenvalues --    1.39352   1.43771   1.47056   1.49965   1.51779
 Alpha virt. eigenvalues --    1.53984   1.56299   1.57317   1.61245   1.61534
 Alpha virt. eigenvalues --    1.62789   1.65668   1.67104   1.68342   1.69408
 Alpha virt. eigenvalues --    1.78608   1.85768   1.86454   1.89782   1.93121
 Alpha virt. eigenvalues --    1.95164   1.99001   2.03735   2.11627   2.13093
 Alpha virt. eigenvalues --    2.15000   2.18090   2.23463   2.40695   2.42733
 Alpha virt. eigenvalues --    2.44977   2.46668   2.50569   2.52652   2.57178
 Alpha virt. eigenvalues --    2.75139   2.75876   3.36319   3.37345   3.38979
 Alpha virt. eigenvalues --    3.39263   3.39982   3.40469   3.40725   3.41861
 Alpha virt. eigenvalues --    3.42879   3.42990   3.43610   3.44408   3.45173
 Alpha virt. eigenvalues --    3.46356   3.46793   3.47394   3.48054   3.48285
 Alpha virt. eigenvalues --    3.49505   3.50108   3.50400   3.52780   3.53978
 Alpha virt. eigenvalues --    3.54684   3.54814   3.56176   3.56857   3.57797
 Alpha virt. eigenvalues --    3.59590   3.61329   3.62248   3.65697   3.69138
 Alpha virt. eigenvalues --    3.93569   3.94154
          Condensed to atoms (all electrons):
               1          2          3          4          5          6
     1  Al  11.782495  -0.087966   0.010081  -0.038406  -0.161640  -0.318239
     2  O   -0.087966   8.700243   0.055188   0.034097   0.064724   0.053681
     3  O    0.010081   0.055188   8.850648   0.056402   0.091939   0.011318
     4  O   -0.038406   0.034097   0.056402   8.658813   0.179909   0.069049
     5  Al  -0.161640   0.064724   0.091939   0.179909  11.260657  -0.224588
     6  Al  -0.318239   0.053681   0.011318   0.069049  -0.224588  11.792148
     7  Al  -0.101717   0.092331   0.066944   0.024325   0.005111  -0.120152
     8  O    0.070823  -0.008820   0.056786   0.032003   0.205438  -0.019478
     9  O    0.056504   0.045915   0.056780  -0.005203   0.063275  -0.085963
    10  O    0.004918  -0.004556   0.003659   0.054759  -0.044537   0.033493
    11  O   -0.005684   0.074470   0.004492   0.000066   0.002724   0.026410
    12  H    0.010265  -0.014493   0.000834  -0.000089   0.000815   0.003196
    13  H    0.008613  -0.000203   0.000629  -0.012503   0.062858   0.003563
               7          8          9         10         11         12
     1  Al  -0.101717   0.070823   0.056504   0.004918  -0.005684   0.010265
     2  O    0.092331  -0.008820   0.045915  -0.004556   0.074470  -0.014493
     3  O    0.066944   0.056786   0.056780   0.003659   0.004492   0.000834
     4  O    0.024325   0.032003  -0.005203   0.054759   0.000066  -0.000089
     5  Al   0.005111   0.205438   0.063275  -0.044537   0.002724   0.000815
     6  Al  -0.120152  -0.019478  -0.085963   0.033493   0.026410   0.003196
     7  Al  11.344075   0.030557   0.155186   0.006734  -0.080093   0.051243
     8  O    0.030557   8.613615   0.040116   0.043548  -0.000799  -0.000234
     9  O    0.155186   0.040116   8.639119  -0.005474   0.067791   0.004290
    10  O    0.006734   0.043548  -0.005474   8.244773   0.000732   0.000721
    11  O   -0.080093  -0.000799   0.067791   0.000732   8.273201   0.303631
    12  H    0.051243  -0.000234   0.004290   0.000721   0.303631   0.559729
    13  H   -0.000260   0.002065  -0.000505   0.300474   0.000413   0.000237
              13
     1  Al   0.008613
     2  O   -0.000203
     3  O    0.000629
     4  O   -0.012503
     5  Al   0.062858
     6  Al   0.003563
     7  Al  -0.000260
     8  O    0.002065
     9  O   -0.000505
    10  O    0.300474
    11  O    0.000413
    12  H    0.000237
    13  H    0.551433
 Mulliken charges:
               1
     1  Al   1.769951
     2  O   -1.004612
     3  O   -1.265700
     4  O   -1.053222
     5  Al   1.493315
     6  Al   1.775561
     7  Al   1.525714
     8  O   -1.065621
     9  O   -1.031831
    10  O   -0.639242
    11  O   -0.667355
    12  H    0.079857
    13  H    0.083185
 Sum of Mulliken charges =  -0.00000
 Mulliken charges with hydrogens summed into heavy atoms:
               1
     1  Al   1.769951
     2  O   -1.004612
     3  O   -1.265700
     4  O   -1.053222
     5  Al   1.493315
     6  Al   1.775561
     7  Al   1.525714
     8  O   -1.065621
     9  O   -1.031831
    10  O   -0.556057
    11  O   -0.587499
 APT charges:
               1
     1  Al   2.449738
     2  O   -1.493245
     3  O   -1.592522
     4  O   -1.489368
     5  Al   2.014776
     6  Al   2.458546
     7  Al   1.977308
     8  O   -1.509066
     9  O   -1.517002
    10  O   -1.557724
    11  O   -1.577142
    12  H    0.941331
    13  H    0.894368
 Sum of APT charges =  -0.00000
 APT charges with hydrogens summed into heavy atoms:
               1
     1  Al   2.449738
     2  O   -1.493245
     3  O   -1.592522
     4  O   -1.489368
     5  Al   2.014776
     6  Al   2.458546
     7  Al   1.977308
     8  O   -1.509066
     9  O   -1.517002
    10  O   -0.663356
    11  O   -0.635810
 Electronic spatial extent (au):  <R**2>=           2313.7006
 Charge=              0.0000 electrons
 Dipole moment (field-independent basis, Debye):
    X=              1.2928    Y=             -0.8085    Z=              2.6049  Tot=              3.0184
 Quadrupole moment (field-independent basis, Debye-Ang):
   XX=            -82.7651   YY=            -78.7934   ZZ=            -80.3700
   XY=             -0.5878   XZ=             -5.3478   YZ=              5.2600
 Traceless Quadrupole moment (field-independent basis, Debye-Ang):
   XX=             -2.1223   YY=              1.8494   ZZ=              0.2728
   XY=             -0.5878   XZ=             -5.3478   YZ=              5.2600
 Octapole moment (field-independent basis, Debye-Ang**2):
  XXX=              4.7806  YYY=             13.8905  ZZZ=             16.9522  XYY=              1.4662
  XXY=             12.0741  XXZ=             22.8386  XZZ=             11.3627  YZZ=            -27.6110
  YYZ=              8.1613  XYZ=              7.8428
 Hexadecapole moment (field-independent basis, Debye-Ang**3):
 XXXX=          -1256.3565 YYYY=           -870.5662 ZZZZ=           -562.4763 XXXY=           -178.6698
 XXXZ=            -83.9104 YYYX=           -149.1047 YYYZ=            117.8573 ZZZX=             55.8678
 ZZZY=             31.8306 XXYY=           -362.3735 XXZZ=           -319.9828 YYZZ=           -265.2410
 XXYZ=              8.0952 YYXZ=              0.6976 ZZXY=           -103.4607
 N-N= 1.023571065994D+03 E-N=-5.611908282172D+03  KE= 1.491655326038D+03
  Exact polarizability:       0.000       0.000       0.000       0.000       0.000       0.000
 Approx polarizability:      98.589      -0.490      98.209      -0.269       1.596     103.189

 This type of calculation cannot be archived.


 IF THERE IS ONE WAY BETTER THAN ANOTHER IT IS THE WAY OF NATURE.

                          -- ARISTOTLE
 Job cpu time:       1 days 16 hours 24 minutes 47.3 seconds.
 Elapsed time:       0 days  0 hours 38 minutes 42.7 seconds.
 File lengths (MBytes):  RWF=    138 Int=      0 D2E=      0 Chk=      9 Scr=      1
 Normal termination of Gaussian 16 at Tue Jul  1 22:51:44 2025.
