 Entering Gaussian System, Link 0=g16
 Initial command:
 /home/g16/g16/l1.exe "/home/xiong/AlLi/Gau-48987.inp" -scrdir="/home/xiong/AlLi/"
 Entering Link 1 = /home/g16/g16/l1.exe PID=     48993.
  
 Copyright (c) 1988-2019, Gaussian, Inc.  All Rights Reserved.
  
 This is part of the Gaussian(R) 16 program.  It is based on
 the Gaussian(R) 09 system (copyright 2009, Gaussian, Inc.),
 the Gaussian(R) 03 system (copyright 2003, Gaussian, Inc.),
 the Gaussian(R) 98 system (copyright 1998, Gaussian, Inc.),
 the Gaussian(R) 94 system (copyright 1995, Gaussian, Inc.),
 the Gaussian 92(TM) system (copyright 1992, Gaussian, Inc.),
 the Gaussian 90(TM) system (copyright 1990, Gaussian, Inc.),
 the Gaussian 88(TM) system (copyright 1988, Gaussian, Inc.),
 the Gaussian 86(TM) system (copyright 1986, Carnegie Mellon
 University), and the Gaussian 82(TM) system (copyright 1983,
 Carnegie Mellon University). Gaussian is a federally registered
 trademark of Gaussian, Inc.
  
 This software contains proprietary and confidential information,
 including trade secrets, belonging to Gaussian, Inc.
  
 This software is provided under written license and may be
 used, copied, transmitted, or stored only in accord with that
 written license.
  
 The following legend is applicable only to US Government
 contracts under FAR:
  
                    RESTRICTED RIGHTS LEGEND
  
 Use, reproduction and disclosure by the US Government is
 subject to restrictions as set forth in subparagraphs (a)
 and (c) of the Commercial Computer Software - Restricted
 Rights clause in FAR 52.227-19.
  
 Gaussian, Inc.
 340 Quinnipiac St., Bldg. 40, Wallingford CT 06492
  
  
 ---------------------------------------------------------------
 Warning -- This program may not be used in any manner that
 competes with the business of Gaussian, Inc. or will provide
 assistance to any competitor of Gaussian, Inc.  The licensee
 of this program is prohibited from giving any competitor of
 Gaussian, Inc. access to this program.  By using this program,
 the user acknowledges that Gaussian, Inc. is engaged in the
 business of creating and licensing software in the field of
 computational chemistry and represents and warrants to the
 licensee that it is not a competitor of Gaussian, Inc. and that
 it will not use this program in any manner prohibited above.
 ---------------------------------------------------------------
  

 Cite this work as:
 Gaussian 16, Revision C.01,
 M. J. Frisch, G. W. Trucks, H. B. Schlegel, G. E. Scuseria, 
 M. A. Robb, J. R. Cheeseman, G. Scalmani, V. Barone, 
 G. A. Petersson, H. Nakatsuji, X. Li, M. Caricato, A. V. Marenich, 
 J. Bloino, B. G. Janesko, R. Gomperts, B. Mennucci, H. P. Hratchian, 
 J. V. Ortiz, A. F. Izmaylov, J. L. Sonnenberg, D. Williams-Young, 
 F. Ding, F. Lipparini, F. Egidi, J. Goings, B. Peng, A. Petrone, 
 T. Henderson, D. Ranasinghe, V. G. Zakrzewski, J. Gao, N. Rega, 
 G. Zheng, W. Liang, M. Hada, M. Ehara, K. Toyota, R. Fukuda, 
 J. Hasegawa, M. Ishida, T. Nakajima, Y. Honda, O. Kitao, H. Nakai, 
 T. Vreven, K. Throssell, J. A. Montgomery, Jr., J. E. Peralta, 
 F. Ogliaro, M. J. Bearpark, J. J. Heyd, E. N. Brothers, K. N. Kudin, 
 V. N. Staroverov, T. A. Keith, R. Kobayashi, J. Normand, 
 K. Raghavachari, A. P. Rendell, J. C. Burant, S. S. Iyengar, 
 J. Tomasi, M. Cossi, J. M. Millam, M. Klene, C. Adamo, R. Cammi, 
 J. W. Ochterski, R. L. Martin, K. Morokuma, O. Farkas, 
 J. B. Foresman, and D. J. Fox, Gaussian, Inc., Wallingford CT, 2019.
 
 ******************************************
 Gaussian 16:  ES64L-G16RevC.01  3-Jul-2019
                 1-Jul-2025 
 ******************************************
 %chk=h2o-ts2.chk
 %mem=50GB
 %nprocshared=64
 Will use up to   64 processors via shared memory.
 ------------------------------------------------
 # opt=(calcfc,ts,noeigen) freq m062x/aug-cc-pvdz
 ------------------------------------------------
 1/5=1,10=4,11=1,18=20,26=3,38=1/1,3;
 2/9=110,12=2,17=6,18=5,40=1/2;
 3/5=16,7=10,11=2,25=1,30=1,71=2,74=-55,140=1/1,2,3;
 4//1;
 5/5=2,38=5/2;
 8/6=4,10=90,11=11/1;
 11/6=1,8=1,9=11,15=111,16=1/1,2,10;
 10/6=1,13=1/2;
 6/7=2,8=2,9=2,10=2,28=1/1;
 7/10=1,25=1/1,2,3,16;
 1/5=1,10=4,11=1,18=20,26=3/3(2);
 2/9=110/2;
 99//99;
 2/9=110/2;
 3/5=16,7=10,11=2,25=1,30=1,71=1,74=-55/1,2,3;
 4/5=5,16=3,69=1/1;
 5/5=2,38=5/2;
 7//1,2,3,16;
 1/5=1,11=1,18=20,26=3/3(-5);
 2/9=110/2;
 6/7=2,8=2,9=2,10=2,19=2,28=1/1;
 99/9=1/99;
 -------------------
 Title Card Required
 -------------------
 Symbolic Z-matrix:
 Charge =  0 Multiplicity = 1
 Al                   0     0.76001  -0.54524   1.48334 
 O                    0    -0.93669  -0.33289   1.53664 
 O                    0     1.28409  -1.79432   0.4066 
 O                    0     1.63969   0.93942   1.29916 
 Al                   0     1.22029   1.39255  -0.30862 
 Al                   0     0.76096  -1.1474   -1.11416 
 Al                   0    -1.74651  -0.22891   0.00253 
 O                    0     1.61915   0.29031  -1.5591 
 O                    0    -0.93371  -1.0391   -1.28535 
 O                    0    -0.36205   2.07437  -0.47866 
 O                    0    -3.35126   0.31995  -0.12872 
 H                    0    -3.84841   0.60153   0.64666 
 H                    0    -0.71611   2.67025   0.19497 
 

 GradGradGradGradGradGradGradGradGradGradGradGradGradGradGradGradGradGrad
 Berny optimization.
 Initialization pass.
                           ----------------------------
                           !    Initial Parameters    !
                           ! (Angstroms and Degrees)  !
 --------------------------                            --------------------------
 ! Name  Definition              Value          Derivative Info.                !
 --------------------------------------------------------------------------------
 ! R1    R(1,2)                  1.7108         calculate D2E/DX2 analytically  !
 ! R2    R(1,3)                  1.7304         calculate D2E/DX2 analytically  !
 ! R3    R(1,4)                  1.7355         calculate D2E/DX2 analytically  !
 ! R4    R(1,5)                  2.6792         calculate D2E/DX2 analytically  !
 ! R5    R(1,6)                  2.6664         calculate D2E/DX2 analytically  !
 ! R6    R(1,7)                  2.9284         calculate D2E/DX2 analytically  !
 ! R7    R(2,7)                  1.7379         calculate D2E/DX2 analytically  !
 ! R8    R(3,6)                  1.7335         calculate D2E/DX2 analytically  !
 ! R9    R(4,5)                  1.7223         calculate D2E/DX2 analytically  !
 ! R10   R(5,6)                  2.7039         calculate D2E/DX2 analytically  !
 ! R11   R(5,8)                  1.714          calculate D2E/DX2 analytically  !
 ! R12   R(5,10)                 1.7314         calculate D2E/DX2 analytically  !
 ! R13   R(6,7)                  2.8945         calculate D2E/DX2 analytically  !
 ! R14   R(6,8)                  1.7325         calculate D2E/DX2 analytically  !
 ! R15   R(6,9)                  1.7067         calculate D2E/DX2 analytically  !
 ! R16   R(7,9)                  1.725          calculate D2E/DX2 analytically  !
 ! R17   R(7,11)                 1.7011         calculate D2E/DX2 analytically  !
 ! R18   R(10,13)                0.9666         calculate D2E/DX2 analytically  !
 ! R19   R(11,12)                0.9631         calculate D2E/DX2 analytically  !
 ! A1    A(2,1,3)              114.165          calculate D2E/DX2 analytically  !
 ! A2    A(2,1,4)              113.5674         calculate D2E/DX2 analytically  !
 ! A3    A(2,1,5)               95.8225         calculate D2E/DX2 analytically  !
 ! A4    A(2,1,6)               93.3673         calculate D2E/DX2 analytically  !
 ! A5    A(3,1,4)              113.4509         calculate D2E/DX2 analytically  !
 ! A6    A(3,1,5)               93.0881         calculate D2E/DX2 analytically  !
 ! A7    A(3,1,7)               91.2924         calculate D2E/DX2 analytically  !
 ! A8    A(4,1,6)               95.1422         calculate D2E/DX2 analytically  !
 ! A9    A(4,1,7)              106.7249         calculate D2E/DX2 analytically  !
 ! A10   A(5,1,7)               74.3774         calculate D2E/DX2 analytically  !
 ! A11   A(1,5,8)               93.6019         calculate D2E/DX2 analytically  !
 ! A12   A(1,5,10)             101.1574         calculate D2E/DX2 analytically  !
 ! A13   A(4,5,6)               94.1479         calculate D2E/DX2 analytically  !
 ! A14   A(4,5,8)              117.0786         calculate D2E/DX2 analytically  !
 ! A15   A(4,5,10)             114.6991         calculate D2E/DX2 analytically  !
 ! A16   A(6,5,10)             100.6851         calculate D2E/DX2 analytically  !
 ! A17   A(8,5,10)             113.2212         calculate D2E/DX2 analytically  !
 ! A18   A(1,6,8)               93.6092         calculate D2E/DX2 analytically  !
 ! A19   A(1,6,9)               94.7625         calculate D2E/DX2 analytically  !
 ! A20   A(3,6,5)               92.1744         calculate D2E/DX2 analytically  !
 ! A21   A(3,6,7)               92.3726         calculate D2E/DX2 analytically  !
 ! A22   A(3,6,8)              112.6761         calculate D2E/DX2 analytically  !
 ! A23   A(3,6,9)              114.2882         calculate D2E/DX2 analytically  !
 ! A24   A(5,6,7)               74.5822         calculate D2E/DX2 analytically  !
 ! A25   A(5,6,9)               97.9868         calculate D2E/DX2 analytically  !
 ! A26   A(7,6,8)              105.359          calculate D2E/DX2 analytically  !
 ! A27   A(8,6,9)              114.4206         calculate D2E/DX2 analytically  !
 ! A28   A(1,7,9)               85.6121         calculate D2E/DX2 analytically  !
 ! A29   A(1,7,11)             151.8033         calculate D2E/DX2 analytically  !
 ! A30   A(2,7,6)               85.2906         calculate D2E/DX2 analytically  !
 ! A31   A(2,7,9)              114.2923         calculate D2E/DX2 analytically  !
 ! A32   A(2,7,11)             121.804          calculate D2E/DX2 analytically  !
 ! A33   A(6,7,11)             152.8547         calculate D2E/DX2 analytically  !
 ! A34   A(9,7,11)             122.5774         calculate D2E/DX2 analytically  !
 ! A35   A(5,10,13)            120.6051         calculate D2E/DX2 analytically  !
 ! A36   A(7,11,12)            121.2756         calculate D2E/DX2 analytically  !
 ! D1    D(2,1,5,8)           -109.2278         calculate D2E/DX2 analytically  !
 ! D2    D(2,1,5,10)             5.2971         calculate D2E/DX2 analytically  !
 ! D3    D(3,1,5,8)              5.4546         calculate D2E/DX2 analytically  !
 ! D4    D(3,1,5,10)           119.9795         calculate D2E/DX2 analytically  !
 ! D5    D(7,1,5,8)            -85.0248         calculate D2E/DX2 analytically  !
 ! D6    D(7,1,5,10)            29.5            calculate D2E/DX2 analytically  !
 ! D7    D(2,1,6,8)            113.2059         calculate D2E/DX2 analytically  !
 ! D8    D(2,1,6,9)             -1.6882         calculate D2E/DX2 analytically  !
 ! D9    D(4,1,6,8)             -0.8377         calculate D2E/DX2 analytically  !
 ! D10   D(4,1,6,9)           -115.7319         calculate D2E/DX2 analytically  !
 ! D11   D(3,1,7,9)            -18.6301         calculate D2E/DX2 analytically  !
 ! D12   D(3,1,7,11)           162.5888         calculate D2E/DX2 analytically  !
 ! D13   D(4,1,7,9)             96.3577         calculate D2E/DX2 analytically  !
 ! D14   D(4,1,7,11)           -82.4234         calculate D2E/DX2 analytically  !
 ! D15   D(5,1,7,9)             74.2154         calculate D2E/DX2 analytically  !
 ! D16   D(5,1,7,11)          -104.5657         calculate D2E/DX2 analytically  !
 ! D17   D(4,5,6,3)             -4.6333         calculate D2E/DX2 analytically  !
 ! D18   D(4,5,6,7)             87.2294         calculate D2E/DX2 analytically  !
 ! D19   D(4,5,6,9)            110.2633         calculate D2E/DX2 analytically  !
 ! D20   D(10,5,6,3)          -120.7388         calculate D2E/DX2 analytically  !
 ! D21   D(10,5,6,7)           -28.8762         calculate D2E/DX2 analytically  !
 ! D22   D(10,5,6,9)            -5.8422         calculate D2E/DX2 analytically  !
 ! D23   D(1,5,10,13)           77.5741         calculate D2E/DX2 analytically  !
 ! D24   D(4,5,10,13)           38.5014         calculate D2E/DX2 analytically  !
 ! D25   D(6,5,10,13)          138.1614         calculate D2E/DX2 analytically  !
 ! D26   D(8,5,10,13)          176.4502         calculate D2E/DX2 analytically  !
 ! D27   D(3,6,7,2)             20.2859         calculate D2E/DX2 analytically  !
 ! D28   D(3,6,7,11)          -163.0076         calculate D2E/DX2 analytically  !
 ! D29   D(5,6,7,2)            -71.3166         calculate D2E/DX2 analytically  !
 ! D30   D(5,6,7,11)           105.3899         calculate D2E/DX2 analytically  !
 ! D31   D(8,6,7,2)            -94.0146         calculate D2E/DX2 analytically  !
 ! D32   D(8,6,7,11)            82.6919         calculate D2E/DX2 analytically  !
 ! D33   D(1,7,11,12)          -14.3448         calculate D2E/DX2 analytically  !
 ! D34   D(2,7,11,12)            1.0027         calculate D2E/DX2 analytically  !
 ! D35   D(6,7,11,12)         -175.1342         calculate D2E/DX2 analytically  !
 ! D36   D(9,7,11,12)          167.0975         calculate D2E/DX2 analytically  !
 --------------------------------------------------------------------------------
 Trust Radius=3.00D-01 FncErr=1.00D-07 GrdErr=1.00D-06 EigMax=2.50D+02 EigMin=1.00D-04
 Number of steps in this run=    100 maximum allowed number of steps=    100.
 Search for a saddle point of order  1.
 GradGradGradGradGradGradGradGradGradGradGradGradGradGradGradGradGradGrad

                          Input orientation:                          
 ---------------------------------------------------------------------
 Center     Atomic      Atomic             Coordinates (Angstroms)
 Number     Number       Type             X           Y           Z
 ---------------------------------------------------------------------
      1         13           0        0.760011   -0.545236    1.483345
      2          8           0       -0.936688   -0.332888    1.536644
      3          8           0        1.284093   -1.794323    0.406603
      4          8           0        1.639693    0.939424    1.299160
      5         13           0        1.220289    1.392553   -0.308625
      6         13           0        0.760963   -1.147403   -1.114157
      7         13           0       -1.746511   -0.228907    0.002530
      8          8           0        1.619151    0.290313   -1.559096
      9          8           0       -0.933711   -1.039100   -1.285345
     10          8           0       -0.362052    2.074365   -0.478662
     11          8           0       -3.351264    0.319955   -0.128718
     12          1           0       -3.848414    0.601530    0.646656
     13          1           0       -0.716113    2.670247    0.194975
 ---------------------------------------------------------------------
                    Distance matrix (angstroms):
                    1          2          3          4          5
     1  Al   0.000000
     2  O    1.710766   0.000000
     3  O    1.730391   2.888711   0.000000
     4  O    1.735506   2.883213   2.897668   0.000000
     5  Al   2.679186   3.321854   3.266771   1.722265   0.000000
     6  Al   2.666388   3.251492   1.733460   3.309246   2.703930
     7  Al   2.928401   1.737852   3.434874   3.809544   3.395269
     8  O    3.269971   4.062548   2.884778   2.931108   1.713972
     9  O    3.283023   2.909015   2.889932   4.149293   3.392143
    10  O    3.459886   3.191635   4.296538   2.907874   1.731354
    11  O    4.499987   3.004964   5.122819   5.228024   4.699142
    12  H    4.822106   3.184865   5.669248   5.537080   5.218241
    13  H    3.765391   3.296596   4.896733   3.124867   2.373977
                    6          7          8          9         10
     6  Al   0.000000
     7  Al   2.894486   0.000000
     8  O    1.732479   3.746457   0.000000
     9  O    1.706738   1.725016   2.891259   0.000000
    10  O    3.470563   2.730080   2.876690   3.266680   0.000000
    11  O    4.476007   1.701090   5.172222   3.004893   3.483648
    12  H    5.235035   2.350005   5.903937   3.862615   3.948456
    13  H    4.297677   3.082832   3.767533   3.999744   0.966551
                   11         12         13
    11  O    0.000000
    12  H    0.963145   0.000000
    13  H    3.545797   3.780862   0.000000
 Stoichiometry    Al4H2O7
 Framework group  C1[X(Al4H2O7)]
 Deg. of freedom    33
 Full point group                 C1      NOp   1
 Largest Abelian subgroup         C1      NOp   1
 Largest concise Abelian subgroup C1      NOp   1
                         Standard orientation:                         
 ---------------------------------------------------------------------
 Center     Atomic      Atomic             Coordinates (Angstroms)
 Number     Number       Type             X           Y           Z
 ---------------------------------------------------------------------
      1         13           0        0.761280   -0.539638    1.484862
      2          8           0       -0.936056   -0.332298    1.537618
      3          8           0        1.289154   -1.789889    0.411330
      4          8           0        1.636458    0.947205    1.296865
      5         13           0        1.215692    1.394932   -0.312076
      6         13           0        0.764074   -1.148464   -1.111086
      7         13           0       -1.746180   -0.234712    0.003244
      8          8           0        1.617901    0.290700   -1.559715
      9          8           0       -0.930919   -1.045739   -1.282549
     10          8           0       -0.368709    2.071505   -0.483861
     11          8           0       -3.352589    0.308943   -0.129410
     12          1           0       -3.850596    0.590999    0.645240
     13          1           0       -0.724578    2.668037    0.188245
 ---------------------------------------------------------------------
 Rotational constants (GHZ):           1.0237351           0.6993822           0.6726715
 Standard basis: Aug-CC-pVDZ (5D, 7F)
 There are   309 symmetry adapted cartesian basis functions of A   symmetry.
 There are   287 symmetry adapted basis functions of A   symmetry.
   287 basis functions,   643 primitive gaussians,   309 cartesian basis functions
    55 alpha electrons       55 beta electrons
       nuclear repulsion energy      1072.3679751469 Hartrees.
 NAtoms=   13 NActive=   13 NUniq=   13 SFac= 1.00D+00 NAtFMM=   60 NAOKFM=F Big=F
 Integral buffers will be    131072 words long.
 Raffenetti 2 integral format.
 Two-electron integral symmetry is turned on.
 One-electron integrals computed using PRISM.
 NBasis=   287 RedAO= T EigKep=  1.05D-04  NBF=   287
 NBsUse=   287 1.00D-06 EigRej= -1.00D+00 NBFU=   287
 ExpMin= 1.53D-02 ExpMax= 6.42D+04 ExpMxC= 2.19D+03 IAcc=3 IRadAn=         5 AccDes= 0.00D+00
 Harris functional with IExCor= 1009 and IRadAn=       5 diagonalized for initial guess.
 HarFok:  IExCor= 1009 AccDes= 0.00D+00 IRadAn=         5 IDoV= 1 UseB2=F ITyADJ=14
 ICtDFT=  3500011 ScaDFX=  1.000000  1.000000  1.000000  1.000000
 FoFCou: FMM=F IPFlag=           0 FMFlag=      100000 FMFlg1=           0
         NFxFlg=           0 DoJE=T BraDBF=F KetDBF=T FulRan=T
         wScrn=  0.000000 ICntrl=       500 IOpCl=  0 I1Cent=   200000004 NGrid=           0
         NMat0=    1 NMatS0=      1 NMatT0=    0 NMatD0=    1 NMtDS0=    0 NMtDT0=    0
 Petite list used in FoFCou.
 Requested convergence on RMS density matrix=1.00D-08 within 128 cycles.
 Requested convergence on MAX density matrix=1.00D-06.
 Requested convergence on             energy=1.00D-06.
 No special actions if energy rises.
 SCF Done:  E(RM062X) =  -1497.91074053     A.U. after   13 cycles
            NFock= 13  Conv=0.50D-08     -V/T= 2.0041
 DoSCS=F DFT=T ScalE2(SS,OS)=  1.000000  1.000000
 Range of M.O.s used for correlation:     1   287
 NBasis=   287 NAE=    55 NBE=    55 NFC=     0 NFV=     0
 NROrb=    287 NOA=    55 NOB=    55 NVA=   232 NVB=   232

 **** Warning!!: The largest alpha MO coefficient is  0.27611747D+02

 Symmetrizing basis deriv contribution to polar:
 IMax=3 JMax=2 DiffMx= 0.00D+00
 G2DrvN: will do    14 centers at a time, making    1 passes.
 Calling FoFCou, ICntrl=  3107 FMM=F I1Cent=   0 AccDes= 0.00D+00.
 End of G2Drv F.D. properties file   721 does not exist.
 End of G2Drv F.D. properties file   722 does not exist.
 End of G2Drv F.D. properties file   788 does not exist.
          IDoAtm=1111111111111
          Differentiating once with respect to nuclear coordinates.
 Keep R1 ints in memory in canonical form, NReq=926979070.
          There are    42 degrees of freedom in the 1st order CPHF.  IDoFFX=6 NUNeed=     0.
     36 vectors produced by pass  0 Test12= 3.04D-14 2.38D-09 XBig12= 5.79D-02 6.13D-02.
 AX will form    36 AO Fock derivatives at one time.
     36 vectors produced by pass  1 Test12= 3.04D-14 2.38D-09 XBig12= 1.22D-02 1.57D-02.
     36 vectors produced by pass  2 Test12= 3.04D-14 2.38D-09 XBig12= 8.25D-04 6.74D-03.
     36 vectors produced by pass  3 Test12= 3.04D-14 2.38D-09 XBig12= 3.05D-05 1.13D-03.
     36 vectors produced by pass  4 Test12= 3.04D-14 2.38D-09 XBig12= 2.93D-07 5.61D-05.
     36 vectors produced by pass  5 Test12= 3.04D-14 2.38D-09 XBig12= 2.29D-09 5.33D-06.
     36 vectors produced by pass  6 Test12= 3.04D-14 2.38D-09 XBig12= 1.80D-11 5.02D-07.
     21 vectors produced by pass  7 Test12= 3.04D-14 2.38D-09 XBig12= 9.62D-14 2.51D-08.
 InvSVY:  IOpt=1 It=  1 EMax= 3.55D-15
 Solved reduced A of dimension   273 with    36 vectors.
 End of Minotr F.D. properties file   721 does not exist.
 End of Minotr F.D. properties file   722 does not exist.
 End of Minotr F.D. properties file   788 does not exist.

 **********************************************************************

            Population analysis using the SCF Density.

 **********************************************************************

 Orbital symmetries:
       Occupied  (A) (A) (A) (A) (A) (A) (A) (A) (A) (A) (A) (A)
                 (A) (A) (A) (A) (A) (A) (A) (A) (A) (A) (A) (A)
                 (A) (A) (A) (A) (A) (A) (A) (A) (A) (A) (A) (A)
                 (A) (A) (A) (A) (A) (A) (A) (A) (A) (A) (A) (A)
                 (A) (A) (A) (A) (A) (A) (A)
       Virtual   (A) (A) (A) (A) (A) (A) (A) (A) (A) (A) (A) (A)
                 (A) (A) (A) (A) (A) (A) (A) (A) (A) (A) (A) (A)
                 (A) (A) (A) (A) (A) (A) (A) (A) (A) (A) (A) (A)
                 (A) (A) (A) (A) (A) (A) (A) (A) (A) (A) (A) (A)
                 (A) (A) (A) (A) (A) (A) (A) (A) (A) (A) (A) (A)
                 (A) (A) (A) (A) (A) (A) (A) (A) (A) (A) (A) (A)
                 (A) (A) (A) (A) (A) (A) (A) (A) (A) (A) (A) (A)
                 (A) (A) (A) (A) (A) (A) (A) (A) (A) (A) (A) (A)
                 (A) (A) (A) (A) (A) (A) (A) (A) (A) (A) (A) (A)
                 (A) (A) (A) (A) (A) (A) (A) (A) (A) (A) (A) (A)
                 (A) (A) (A) (A) (A) (A) (A) (A) (A) (A) (A) (A)
                 (A) (A) (A) (A) (A) (A) (A) (A) (A) (A) (A) (A)
                 (A) (A) (A) (A) (A) (A) (A) (A) (A) (A) (A) (A)
                 (A) (A) (A) (A) (A) (A) (A) (A) (A) (A) (A) (A)
                 (A) (A) (A) (A) (A) (A) (A) (A) (A) (A) (A) (A)
                 (A) (A) (A) (A) (A) (A) (A) (A) (A) (A) (A) (A)
                 (A) (A) (A) (A) (A) (A) (A) (A) (A) (A) (A) (A)
                 (A) (A) (A) (A) (A) (A) (A) (A) (A) (A) (A) (A)
                 (A) (A) (A) (A) (A) (A) (A) (A) (A) (A) (A) (A)
                 (A) (A) (A) (A)
 The electronic state is 1-A.
 Alpha  occ. eigenvalues --  -56.91494 -56.90583 -56.90558 -56.88702 -19.65934
 Alpha  occ. eigenvalues --  -19.62385 -19.62376 -19.62193 -19.61575 -19.61444
 Alpha  occ. eigenvalues --  -19.61306  -4.42498  -4.41579  -4.41544  -4.39469
 Alpha  occ. eigenvalues --   -2.92976  -2.92453  -2.92413  -2.92078  -2.92028
 Alpha  occ. eigenvalues --   -2.91499  -2.91481  -2.91460  -2.91445  -2.89846
 Alpha  occ. eigenvalues --   -2.89559  -2.89501  -1.11947  -1.08632  -1.07346
 Alpha  occ. eigenvalues --   -1.05224  -1.05017  -1.03811  -1.03556  -0.59836
 Alpha  occ. eigenvalues --   -0.57038  -0.51969  -0.51615  -0.50296  -0.49294
 Alpha  occ. eigenvalues --   -0.46157  -0.45540  -0.45049  -0.44875  -0.44618
 Alpha  occ. eigenvalues --   -0.42087  -0.41049  -0.40519  -0.39762  -0.38972
 Alpha  occ. eigenvalues --   -0.38554  -0.38485  -0.37959  -0.36639  -0.36054
 Alpha virt. eigenvalues --   -0.08691  -0.04335  -0.04252  -0.00793   0.00548
 Alpha virt. eigenvalues --    0.00836   0.01388   0.01718   0.02052   0.02205
 Alpha virt. eigenvalues --    0.02271   0.02552   0.03098   0.03843   0.03986
 Alpha virt. eigenvalues --    0.04211   0.05228   0.05484   0.06711   0.07662
 Alpha virt. eigenvalues --    0.08591   0.08658   0.09429   0.10078   0.10706
 Alpha virt. eigenvalues --    0.10893   0.11207   0.11386   0.11732   0.11910
 Alpha virt. eigenvalues --    0.11995   0.12121   0.13303   0.13650   0.14766
 Alpha virt. eigenvalues --    0.15114   0.15792   0.15899   0.16290   0.16360
 Alpha virt. eigenvalues --    0.17282   0.17410   0.18612   0.19100   0.19919
 Alpha virt. eigenvalues --    0.20283   0.21298   0.22391   0.22735   0.23195
 Alpha virt. eigenvalues --    0.24255   0.24732   0.24820   0.25918   0.26017
 Alpha virt. eigenvalues --    0.26145   0.26444   0.26839   0.27411   0.27595
 Alpha virt. eigenvalues --    0.27863   0.28356   0.28724   0.29682   0.30353
 Alpha virt. eigenvalues --    0.31209   0.31887   0.32430   0.33157   0.33464
 Alpha virt. eigenvalues --    0.34527   0.34941   0.35823   0.36423   0.37135
 Alpha virt. eigenvalues --    0.37547   0.38727   0.38939   0.39141   0.39430
 Alpha virt. eigenvalues --    0.40118   0.41041   0.41965   0.43116   0.44371
 Alpha virt. eigenvalues --    0.44686   0.45303   0.46309   0.47263   0.47706
 Alpha virt. eigenvalues --    0.47895   0.48608   0.49184   0.49685   0.50500
 Alpha virt. eigenvalues --    0.50866   0.51875   0.53006   0.53838   0.54104
 Alpha virt. eigenvalues --    0.54588   0.55251   0.56483   0.57312   0.58360
 Alpha virt. eigenvalues --    0.60013   0.60517   0.61142   0.61957   0.62837
 Alpha virt. eigenvalues --    0.63939   0.65180   0.66113   0.67549   0.74900
 Alpha virt. eigenvalues --    0.75284   0.78243   0.79807   0.82667   0.83625
 Alpha virt. eigenvalues --    0.84306   0.85102   0.85897   0.88060   0.90513
 Alpha virt. eigenvalues --    0.91097   0.93943   0.95975   0.97262   0.98470
 Alpha virt. eigenvalues --    1.00206   1.00507   1.01019   1.02979   1.04339
 Alpha virt. eigenvalues --    1.06862   1.07408   1.08180   1.09216   1.10907
 Alpha virt. eigenvalues --    1.11143   1.12491   1.13326   1.14009   1.15488
 Alpha virt. eigenvalues --    1.16455   1.16852   1.18535   1.19341   1.20455
 Alpha virt. eigenvalues --    1.20988   1.22410   1.27730   1.28243   1.30522
 Alpha virt. eigenvalues --    1.35140   1.36796   1.39532   1.42415   1.44721
 Alpha virt. eigenvalues --    1.47510   1.49855   1.50282   1.52819   1.55610
 Alpha virt. eigenvalues --    1.57339   1.59968   1.60418   1.62414   1.63862
 Alpha virt. eigenvalues --    1.64930   1.66459   1.69384   1.70317   1.73387
 Alpha virt. eigenvalues --    1.79306   1.84501   1.88948   1.89414   1.94984
 Alpha virt. eigenvalues --    1.97223   1.99762   2.09470   2.12115   2.15419
 Alpha virt. eigenvalues --    2.18678   2.20926   2.24384   2.41329   2.47646
 Alpha virt. eigenvalues --    2.48462   2.49668   2.51492   2.53803   2.60227
 Alpha virt. eigenvalues --    2.75952   2.78868   3.37649   3.39856   3.40251
 Alpha virt. eigenvalues --    3.40567   3.41451   3.42172   3.42891   3.43723
 Alpha virt. eigenvalues --    3.44292   3.44908   3.45377   3.46285   3.47221
 Alpha virt. eigenvalues --    3.48049   3.48357   3.49242   3.49573   3.50342
 Alpha virt. eigenvalues --    3.51025   3.51304   3.52932   3.53529   3.54645
 Alpha virt. eigenvalues --    3.55056   3.56236   3.56772   3.57340   3.58508
 Alpha virt. eigenvalues --    3.59364   3.60882   3.61697   3.67756   3.68921
 Alpha virt. eigenvalues --    3.89881   3.95725
          Condensed to atoms (all electrons):
               1          2          3          4          5          6
     1  Al  11.846931  -0.129577  -0.035381  -0.037817  -0.252984  -0.271008
     2  O   -0.129577   8.882596   0.072614   0.097784   0.016244   0.076922
     3  O   -0.035381   0.072614   8.834439   0.071463   0.120574  -0.049973
     4  O   -0.037817   0.097784   0.071463   8.807638   0.049373   0.106025
     5  Al  -0.252984   0.016244   0.120574   0.049373  11.468980  -0.269850
     6  Al  -0.271008   0.076922  -0.049973   0.106025  -0.269850  11.829817
     7  Al  -0.163508   0.052321   0.083970   0.035764  -0.014594  -0.196279
     8  O    0.094577  -0.010307   0.068116   0.050088   0.052416  -0.033831
     9  O    0.068828   0.053967   0.074642  -0.006471   0.056769  -0.126084
    10  O   -0.000232   0.007611  -0.004977   0.086117  -0.144653   0.036987
    11  O   -0.015558   0.087500   0.002853   0.000040   0.008738   0.015154
    12  H    0.009296  -0.009065   0.000376   0.000258  -0.001239   0.001642
    13  H    0.018182   0.001006  -0.003255  -0.004005   0.044473   0.007403
               7          8          9         10         11         12
     1  Al  -0.163508   0.094577   0.068828  -0.000232  -0.015558   0.009296
     2  O    0.052321  -0.010307   0.053967   0.007611   0.087500  -0.009065
     3  O    0.083970   0.068116   0.074642  -0.004977   0.002853   0.000376
     4  O    0.035764   0.050088  -0.006471   0.086117   0.000040   0.000258
     5  Al  -0.014594   0.052416   0.056769  -0.144653   0.008738  -0.001239
     6  Al  -0.196279  -0.033831  -0.126084   0.036987   0.015154   0.001642
     7  Al  11.411359   0.063391   0.099710   0.035454  -0.133707   0.062662
     8  O    0.063391   8.794909   0.070501   0.058027  -0.000034  -0.000098
     9  O    0.099710   0.070501   8.769752   0.007413   0.075465   0.003005
    10  O    0.035454   0.058027   0.007413   8.319437  -0.005021  -0.002360
    11  O   -0.133707  -0.000034   0.075465  -0.005021   8.346972   0.287402
    12  H    0.062662  -0.000098   0.003005  -0.002360   0.287402   0.565123
    13  H    0.002479   0.003687   0.000611   0.320439   0.002734   0.000393
              13
     1  Al   0.018182
     2  O    0.001006
     3  O   -0.003255
     4  O   -0.004005
     5  Al   0.044473
     6  Al   0.007403
     7  Al   0.002479
     8  O    0.003687
     9  O    0.000611
    10  O    0.320439
    11  O    0.002734
    12  H    0.000393
    13  H    0.518857
 Mulliken charges:
               1
     1  Al   1.868251
     2  O   -1.199616
     3  O   -1.235461
     4  O   -1.256256
     5  Al   1.865753
     6  Al   1.873076
     7  Al   1.660979
     8  O   -1.211441
     9  O   -1.148107
    10  O   -0.714242
    11  O   -0.672538
    12  H    0.082606
    13  H    0.086997
 Sum of Mulliken charges =  -0.00000
 Mulliken charges with hydrogens summed into heavy atoms:
               1
     1  Al   1.868251
     2  O   -1.199616
     3  O   -1.235461
     4  O   -1.256256
     5  Al   1.865753
     6  Al   1.873076
     7  Al   1.660979
     8  O   -1.211441
     9  O   -1.148107
    10  O   -0.627245
    11  O   -0.589932
 APT charges:
               1
     1  Al   2.536273
     2  O   -1.619870
     3  O   -1.596471
     4  O   -1.566377
     5  Al   2.265700
     6  Al   2.527434
     7  Al   2.038075
     8  O   -1.553345
     9  O   -1.622919
    10  O   -1.433273
    11  O   -1.569615
    12  H    0.907398
    13  H    0.686990
 Sum of APT charges =  -0.00000
 APT charges with hydrogens summed into heavy atoms:
               1
     1  Al   2.536273
     2  O   -1.619870
     3  O   -1.596471
     4  O   -1.566377
     5  Al   2.265700
     6  Al   2.527434
     7  Al   2.038075
     8  O   -1.553345
     9  O   -1.622919
    10  O   -0.746283
    11  O   -0.662217
 Electronic spatial extent (au):  <R**2>=           1951.8133
 Charge=             -0.0000 electrons
 Dipole moment (field-independent basis, Debye):
    X=              2.0065    Y=              1.2352    Z=              1.8866  Tot=              3.0185
 Quadrupole moment (field-independent basis, Debye-Ang):
   XX=            -86.2153   YY=            -71.5791   ZZ=            -78.6538
   XY=              0.0218   XZ=             -7.0624   YZ=              2.8048
 Traceless Quadrupole moment (field-independent basis, Debye-Ang):
   XX=             -7.3993   YY=              7.2370   ZZ=              0.1623
   XY=              0.0218   XZ=             -7.0624   YZ=              2.8048
 Octapole moment (field-independent basis, Debye-Ang**2):
  XXX=            -12.1862  YYY=             32.8436  ZZZ=             19.2477  XYY=              8.6003
  XXY=             14.3799  XXZ=             19.1150  XZZ=             12.1142  YZZ=            -24.7377
  YYZ=             -9.3142  XYZ=             -5.4660
 Hexadecapole moment (field-independent basis, Debye-Ang**3):
 XXXX=          -1184.2177 YYYY=           -591.2938 ZZZZ=           -541.3926 XXXY=             -5.1708
 XXXZ=            -96.8166 YYYX=             24.9699 YYYZ=             35.9579 ZZZX=             26.4717
 ZZZY=             -6.5916 XXYY=           -275.1237 XXZZ=           -303.2227 YYZZ=           -187.9666
 XXYZ=              5.2888 YYXZ=            -44.0632 ZZXY=            -44.3091
 N-N= 1.072367975147D+03 E-N=-5.710141891596D+03  KE= 1.491774991573D+03
  Exact polarizability:       0.000       0.000       0.000       0.000       0.000       0.000
 Approx polarizability:      99.663      -0.001      99.000      -0.948       1.574     101.490
 Calling FoFJK, ICntrl=    100127 FMM=F ISym2X=0 I1Cent= 0 IOpClX= 0 NMat=1 NMatS=1 NMatT=0.
 ***** Axes restored to original set *****
 -------------------------------------------------------------------
 Center     Atomic                   Forces (Hartrees/Bohr)
 Number     Number              X              Y              Z
 -------------------------------------------------------------------
      1       13           0.000616763   -0.000045307   -0.000747474
      2        8          -0.004176731    0.000473319    0.007441259
      3        8           0.004117010   -0.006861505    0.001234386
      4        8           0.005105970    0.003243039    0.005501253
      5       13          -0.000955653    0.000544697    0.001646660
      6       13           0.001045481   -0.000024688    0.001637782
      7       13           0.002574019    0.000549230    0.002329321
      8        8           0.004654929    0.000734943   -0.007162849
      9        8          -0.004789859   -0.002985438   -0.008115538
     10        8          -0.005684625    0.006417947    0.000706511
     11        8          -0.008124868    0.003211162    0.002267538
     12        1           0.003370558   -0.001590311   -0.003880932
     13        1           0.002247007   -0.003667088   -0.002857917
 -------------------------------------------------------------------
 Cartesian Forces:  Max     0.008124868 RMS     0.003950845
 FormGI is forming the generalized inverse of G from B-inverse, IUseBI=4.

 GradGradGradGradGradGradGradGradGradGradGradGradGradGradGradGradGradGrad
 Berny optimization.
 Internal  Forces:  Max     0.005348402 RMS     0.002230166
 Search for a saddle point.
 Step number   1 out of a maximum of  100
 All quantities printed in internal units (Hartrees-Bohrs-Radians)
 Swapping is turned off.
 Second derivative matrix not updated -- analytic derivatives used.
 ITU=  0
     Eigenvalues ---   -0.03215   0.00171   0.00264   0.00331   0.01191
     Eigenvalues ---    0.02196   0.02360   0.02470   0.02679   0.02814
     Eigenvalues ---    0.03942   0.04188   0.04713   0.05082   0.05729
     Eigenvalues ---    0.06175   0.06445   0.07325   0.07762   0.17834
     Eigenvalues ---    0.18417   0.18957   0.20174   0.20495   0.21145
     Eigenvalues ---    0.21623   0.22836   0.25415   0.26007   0.27286
     Eigenvalues ---    0.30431   0.53607   0.54862
 Eigenvectors required to have negative eigenvalues:
                          A12       A16       D21       D6        D27
   1                    0.29024   0.28417  -0.24514   0.23562   0.20742
                          D22       D11       D2        D20       A10
   1                   -0.19963  -0.19538   0.19366  -0.18957   0.18237
 RFO step:  Lambda0=7.044438057D-06 Lambda=-2.10240100D-03.
 Linear search not attempted -- option 19 set.
 Iteration  1 RMS(Cart)=  0.01521922 RMS(Int)=  0.00032492
 Iteration  2 RMS(Cart)=  0.00029908 RMS(Int)=  0.00009179
 Iteration  3 RMS(Cart)=  0.00000020 RMS(Int)=  0.00009179
 Variable       Old X    -DE/DX   Delta X   Delta X   Delta X     New X
                                 (Linear)    (Quad)   (Total)
    R1        3.23288   0.00451   0.00000   0.02045   0.02062   3.25349
    R2        3.26996   0.00458   0.00000   0.01839   0.01843   3.28839
    R3        3.27963   0.00399   0.00000   0.01960   0.01969   3.29932
    R4        5.06293   0.00068   0.00000  -0.00567  -0.00572   5.05720
    R5        5.03874   0.00045   0.00000   0.00009   0.00000   5.03874
    R6        5.53387   0.00077   0.00000  -0.00941  -0.00962   5.52425
    R7        3.28406   0.00458   0.00000   0.02384   0.02403   3.30809
    R8        3.27576   0.00436   0.00000   0.01817   0.01824   3.29401
    R9        3.25461   0.00471   0.00000   0.01899   0.01907   3.27368
   R10        5.10969   0.00052   0.00000  -0.00889  -0.00906   5.10063
   R11        3.23894   0.00502   0.00000   0.02125   0.02136   3.26030
   R12        3.27178   0.00443   0.00000   0.01946   0.01946   3.29125
   R13        5.46979   0.00087   0.00000  -0.00810  -0.00832   5.46146
   R14        3.27391   0.00436   0.00000   0.02052   0.02063   3.29454
   R15        3.22527   0.00531   0.00000   0.02141   0.02162   3.24689
   R16        3.25981   0.00535   0.00000   0.02653   0.02671   3.28652
   R17        3.21459   0.00513   0.00000   0.02069   0.02069   3.23529
   R18        1.82652  -0.00507   0.00000  -0.00715  -0.00715   1.81937
   R19        1.82008  -0.00532   0.00000  -0.00793  -0.00793   1.81215
    A1        1.99255   0.00181   0.00000   0.01145   0.01130   2.00386
    A2        1.98213   0.00119   0.00000   0.00415   0.00399   1.98611
    A3        1.67242   0.00162   0.00000   0.00767   0.00762   1.68003
    A4        1.62957   0.00200   0.00000   0.01251   0.01241   1.64198
    A5        1.98009   0.00117   0.00000   0.00521   0.00509   1.98518
    A6        1.62469   0.00128   0.00000   0.00471   0.00467   1.62936
    A7        1.59335   0.00111   0.00000   0.00579   0.00577   1.59912
    A8        1.66054   0.00130   0.00000   0.00589   0.00583   1.66637
    A9        1.86270   0.00144   0.00000   0.00306   0.00303   1.86573
   A10        1.29813   0.00010   0.00000  -0.00412  -0.00411   1.29402
   A11        1.63366   0.00144   0.00000   0.01007   0.01003   1.64369
   A12        1.76553   0.00118   0.00000   0.00269   0.00268   1.76821
   A13        1.64319   0.00114   0.00000   0.00900   0.00896   1.65215
   A14        2.04341   0.00141   0.00000   0.00891   0.00874   2.05214
   A15        2.00188   0.00131   0.00000   0.00779   0.00777   2.00965
   A16        1.75729   0.00066   0.00000  -0.00300  -0.00301   1.75428
   A17        1.97608   0.00023   0.00000  -0.00160  -0.00167   1.97442
   A18        1.63379   0.00164   0.00000   0.00828   0.00826   1.64205
   A19        1.65392   0.00230   0.00000   0.01282   0.01272   1.66664
   A20        1.60875   0.00138   0.00000   0.00579   0.00577   1.61452
   A21        1.61221   0.00110   0.00000   0.00537   0.00535   1.61756
   A22        1.96657   0.00156   0.00000   0.00654   0.00642   1.97299
   A23        1.99471   0.00206   0.00000   0.01231   0.01216   2.00687
   A24        1.30170   0.00010   0.00000  -0.00389  -0.00387   1.29783
   A25        1.71019   0.00169   0.00000   0.00651   0.00646   1.71665
   A26        1.83886   0.00150   0.00000   0.00536   0.00534   1.84421
   A27        1.99702   0.00094   0.00000   0.00379   0.00360   2.00061
   A28        1.49421   0.00221   0.00000   0.01449   0.01441   1.50862
   A29        2.64947   0.00047   0.00000   0.00603   0.00593   2.65540
   A30        1.48860   0.00186   0.00000   0.01399   0.01392   1.50252
   A31        1.99478   0.00374   0.00000   0.02379   0.02355   2.01833
   A32        2.12588  -0.00140   0.00000  -0.00477  -0.00473   2.12115
   A33        2.66782  -0.00044   0.00000  -0.00930  -0.00927   2.65855
   A34        2.13938  -0.00268   0.00000  -0.02063  -0.02047   2.11891
   A35        2.10496  -0.00135   0.00000  -0.03747  -0.03747   2.06749
   A36        2.11666  -0.00135   0.00000  -0.03169  -0.03169   2.08497
    D1       -1.90638  -0.00208   0.00000  -0.01604  -0.01594  -1.92232
    D2        0.09245  -0.00130   0.00000  -0.01479  -0.01471   0.07774
    D3        0.09520   0.00010   0.00000  -0.00301  -0.00298   0.09222
    D4        2.09404   0.00088   0.00000  -0.00176  -0.00175   2.09228
    D5       -1.48396  -0.00070   0.00000  -0.00749  -0.00745  -1.49141
    D6        0.51487   0.00008   0.00000  -0.00624  -0.00622   0.50865
    D7        1.97582   0.00150   0.00000   0.00788   0.00783   1.98365
    D8       -0.02947   0.00011   0.00000   0.00166   0.00164  -0.02782
    D9       -0.01462  -0.00008   0.00000   0.00152   0.00151  -0.01311
   D10       -2.01990  -0.00147   0.00000  -0.00470  -0.00468  -2.02458
   D11       -0.32516  -0.00062   0.00000   0.00073   0.00072  -0.32443
   D12        2.83771  -0.00074   0.00000   0.00978   0.00993   2.84764
   D13        1.68176   0.00123   0.00000   0.00872   0.00862   1.69038
   D14       -1.43856   0.00111   0.00000   0.01777   0.01783  -1.42073
   D15        1.29530   0.00040   0.00000   0.00397   0.00391   1.29921
   D16       -1.82501   0.00028   0.00000   0.01302   0.01311  -1.81190
   D17       -0.08087  -0.00006   0.00000   0.00159   0.00158  -0.07929
   D18        1.52244   0.00071   0.00000   0.00546   0.00542   1.52786
   D19        1.92446   0.00245   0.00000   0.01579   0.01570   1.94016
   D20       -2.10729  -0.00181   0.00000  -0.00814  -0.00813  -2.11542
   D21       -0.50398  -0.00104   0.00000  -0.00427  -0.00429  -0.50827
   D22       -0.10197   0.00071   0.00000   0.00605   0.00599  -0.09597
   D23        1.35392  -0.00038   0.00000  -0.04700  -0.04699   1.30694
   D24        0.67198  -0.00218   0.00000  -0.05618  -0.05615   0.61583
   D25        2.41137  -0.00021   0.00000  -0.04537  -0.04537   2.36600
   D26        3.07964   0.00183   0.00000  -0.03489  -0.03494   3.04470
   D27        0.35406   0.00054   0.00000  -0.00250  -0.00247   0.35159
   D28       -2.84502   0.00111   0.00000  -0.00444  -0.00437  -2.84939
   D29       -1.24471  -0.00060   0.00000  -0.00690  -0.00685  -1.25156
   D30        1.83940  -0.00003   0.00000  -0.00885  -0.00874   1.83066
   D31       -1.64086  -0.00171   0.00000  -0.01199  -0.01191  -1.65278
   D32        1.44325  -0.00114   0.00000  -0.01394  -0.01381   1.42944
   D33       -0.25036  -0.00025   0.00000  -0.00520  -0.00523  -0.25560
   D34        0.01750   0.00080   0.00000   0.01030   0.01034   0.02784
   D35       -3.05667   0.00008   0.00000   0.01246   0.01243  -3.04424
   D36        2.91640  -0.00043   0.00000   0.00521   0.00524   2.92164
         Item               Value     Threshold  Converged?
 Maximum Force            0.005348     0.000450     NO 
 RMS     Force            0.002230     0.000300     NO 
 Maximum Displacement     0.076303     0.001800     NO 
 RMS     Displacement     0.015316     0.001200     NO 
 Predicted change in Energy=-1.070787D-03
 GradGradGradGradGradGradGradGradGradGradGradGradGradGradGradGradGradGrad

                          Input orientation:                          
 ---------------------------------------------------------------------
 Center     Atomic      Atomic             Coordinates (Angstroms)
 Number     Number       Type             X           Y           Z
 ---------------------------------------------------------------------
      1         13           0        0.761232   -0.540938    1.484375
      2          8           0       -0.945831   -0.330819    1.561535
      3          8           0        1.293900   -1.802788    0.411019
      4          8           0        1.647591    0.952857    1.307767
      5         13           0        1.212308    1.392198   -0.310430
      6         13           0        0.760738   -1.145091   -1.112666
      7         13           0       -1.740358   -0.224614    0.005280
      8          8           0        1.627881    0.294876   -1.575245
      9          8           0       -0.943923   -1.046856   -1.304012
     10          8           0       -0.381734    2.070616   -0.489691
     11          8           0       -3.352098    0.333955   -0.140921
     12          1           0       -3.826010    0.617267    0.643122
     13          1           0       -0.724249    2.629869    0.215177
 ---------------------------------------------------------------------
                    Distance matrix (angstroms):
                    1          2          3          4          5
     1  Al   0.000000
     2  O    1.721675   0.000000
     3  O    1.740142   2.916637   0.000000
     4  O    1.745923   2.904834   2.919390   0.000000
     5  Al   2.676156   3.336256   3.276444   1.732356   0.000000
     6  Al   2.666388   3.275175   1.743113   3.323612   2.699136
     7  Al   2.923309   1.750566   3.444123   3.815902   3.381123
     8  O    3.287999   4.105469   2.908089   2.957210   1.725275
     9  O    3.307357   2.953655   2.919010   4.187624   3.403752
    10  O    3.467495   3.208212   4.315354   2.932303   1.741653
    11  O    4.508493   3.021656   5.143501   5.242006   4.688541
    12  H    4.805406   3.168246   5.667805   5.524009   5.185984
    13  H    3.724451   3.259977   4.874395   3.103506   2.357615
                    6          7          8          9         10
     6  Al   0.000000
     7  Al   2.890081   0.000000
     8  O    1.743393   3.756722   0.000000
     9  O    1.718178   1.739149   2.913415   0.000000
    10  O    3.469022   2.712735   2.893135   3.270750   0.000000
    11  O    4.477420   1.712039   5.182567   3.009772   3.458423
    12  H    5.217945   2.337851   5.896610   3.855782   3.906216
    13  H    4.268335   3.037203   3.767004   3.984282   0.962767
                   11         12         13
    11  O    0.000000
    12  H    0.958948   0.000000
    13  H    3.507651   3.722180   0.000000
 Stoichiometry    Al4H2O7
 Framework group  C1[X(Al4H2O7)]
 Deg. of freedom    33
 Full point group                 C1      NOp   1
 Largest Abelian subgroup         C1      NOp   1
 Largest concise Abelian subgroup C1      NOp   1
                         Standard orientation:                         
 ---------------------------------------------------------------------
 Center     Atomic      Atomic             Coordinates (Angstroms)
 Number     Number       Type             X           Y           Z
 ---------------------------------------------------------------------
      1         13           0        0.770411   -0.529128    1.486152
      2          8           0       -0.938263   -0.333892    1.566662
      3          8           0        1.311629   -1.791592    0.417808
      4          8           0        1.642907    0.971618    1.299714
      5         13           0        1.199599    1.398836   -0.319551
      6         13           0        0.768732   -1.146426   -1.107796
      7         13           0       -1.737660   -0.242690    0.011950
      8          8           0        1.621767    0.298872   -1.579879
      9          8           0       -0.937222   -1.064409   -1.295229
     10          8           0       -0.400904    2.062055   -0.498114
     11          8           0       -3.354703    0.300696   -0.132903
     12          1           0       -3.829139    0.583732    0.650922
     13          1           0       -0.746622    2.621792    0.204804
 ---------------------------------------------------------------------
 Rotational constants (GHZ):           1.0153991           0.6951475           0.6713090
 Standard basis: Aug-CC-pVDZ (5D, 7F)
 There are   309 symmetry adapted cartesian basis functions of A   symmetry.
 There are   287 symmetry adapted basis functions of A   symmetry.
   287 basis functions,   643 primitive gaussians,   309 cartesian basis functions
    55 alpha electrons       55 beta electrons
       nuclear repulsion energy      1068.5059789732 Hartrees.
 NAtoms=   13 NActive=   13 NUniq=   13 SFac= 1.00D+00 NAtFMM=   60 NAOKFM=F Big=F
 Integral buffers will be    131072 words long.
 Raffenetti 2 integral format.
 Two-electron integral symmetry is turned on.
 One-electron integrals computed using PRISM.
 NBasis=   287 RedAO= T EigKep=  1.11D-04  NBF=   287
 NBsUse=   287 1.00D-06 EigRej= -1.00D+00 NBFU=   287
 Initial guess from the checkpoint file:  "h2o-ts2.chk"
 B after Tr=     0.000000   -0.000000   -0.000000
         Rot=    0.999992    0.002040   -0.001216   -0.003236 Ang=   0.46 deg.
 ExpMin= 1.53D-02 ExpMax= 6.42D+04 ExpMxC= 2.19D+03 IAcc=3 IRadAn=         5 AccDes= 0.00D+00
 Harris functional with IExCor= 1009 and IRadAn=       5 diagonalized for initial guess.
 HarFok:  IExCor= 1009 AccDes= 0.00D+00 IRadAn=         5 IDoV= 1 UseB2=F ITyADJ=14
 ICtDFT=  3500011 ScaDFX=  1.000000  1.000000  1.000000  1.000000
 FoFCou: FMM=F IPFlag=           0 FMFlag=      100000 FMFlg1=           0
         NFxFlg=           0 DoJE=T BraDBF=F KetDBF=T FulRan=T
         wScrn=  0.000000 ICntrl=       500 IOpCl=  0 I1Cent=   200000004 NGrid=           0
         NMat0=    1 NMatS0=      1 NMatT0=    0 NMatD0=    1 NMtDS0=    0 NMtDT0=    0
 Petite list used in FoFCou.
 Requested convergence on RMS density matrix=1.00D-08 within 128 cycles.
 Requested convergence on MAX density matrix=1.00D-06.
 Requested convergence on             energy=1.00D-06.
 No special actions if energy rises.
 SCF Done:  E(RM062X) =  -1497.91181600     A.U. after   11 cycles
            NFock= 11  Conv=0.70D-08     -V/T= 2.0042
 Calling FoFJK, ICntrl=      2127 FMM=F ISym2X=0 I1Cent= 0 IOpClX= 0 NMat=1 NMatS=1 NMatT=0.
 ***** Axes restored to original set *****
 -------------------------------------------------------------------
 Center     Atomic                   Forces (Hartrees/Bohr)
 Number     Number              X              Y              Z
 -------------------------------------------------------------------
      1       13           0.000057022   -0.000007566    0.000021316
      2        8          -0.000109863    0.000058956    0.000200116
      3        8           0.000115522   -0.000157516    0.000030736
      4        8           0.000123238    0.000131205    0.000157803
      5       13          -0.000002858   -0.000027034   -0.000019134
      6       13           0.000039245   -0.000035801    0.000016704
      7       13           0.000004511   -0.000171420    0.000103947
      8        8           0.000133930   -0.000006399   -0.000185158
      9        8          -0.000079961   -0.000089469   -0.000262997
     10        8          -0.000009009    0.000242260   -0.000060742
     11        8          -0.000138195    0.000122265   -0.000088222
     12        1          -0.000028978    0.000032968    0.000015805
     13        1          -0.000104604   -0.000092449    0.000069827
 -------------------------------------------------------------------
 Cartesian Forces:  Max     0.000262997 RMS     0.000109408

 GradGradGradGradGradGradGradGradGradGradGradGradGradGradGradGradGradGrad
 Berny optimization.
 FormGI is forming the generalized inverse of G from B-inverse, IUseBI=4.
 Internal  Forces:  Max     0.000213781 RMS     0.000063762
 Search for a saddle point.
 Step number   2 out of a maximum of  100
 All quantities printed in internal units (Hartrees-Bohrs-Radians)
 Swapping is turned off.
 Update second derivatives using D2CorX and points    1    2
 ITU=  0  0
     Eigenvalues ---   -0.03208   0.00170   0.00264   0.00424   0.01195
     Eigenvalues ---    0.02196   0.02362   0.02474   0.02679   0.02823
     Eigenvalues ---    0.03945   0.04188   0.04715   0.05083   0.05736
     Eigenvalues ---    0.06200   0.06469   0.07329   0.07760   0.17832
     Eigenvalues ---    0.18399   0.18919   0.20154   0.20491   0.21011
     Eigenvalues ---    0.21621   0.22819   0.25410   0.25988   0.27249
     Eigenvalues ---    0.30401   0.53611   0.54867
 Eigenvectors required to have negative eigenvalues:
                          A12       A16       D21       D6        D27
   1                    0.29017   0.28422  -0.24523   0.23574   0.20775
                          D22       D11       D2        D20       A10
   1                   -0.19931  -0.19574   0.19298  -0.19026   0.18217
 RFO step:  Lambda0=1.011572773D-07 Lambda=-5.92684968D-06.
 Linear search not attempted -- option 19 set.
 Iteration  1 RMS(Cart)=  0.00400734 RMS(Int)=  0.00001386
 Iteration  2 RMS(Cart)=  0.00001236 RMS(Int)=  0.00000212
 Iteration  3 RMS(Cart)=  0.00000000 RMS(Int)=  0.00000212
 Variable       Old X    -DE/DX   Delta X   Delta X   Delta X     New X
                                 (Linear)    (Quad)   (Total)
    R1        3.25349   0.00013   0.00000   0.00078   0.00078   3.25427
    R2        3.28839   0.00012   0.00000   0.00052   0.00052   3.28891
    R3        3.29932   0.00012   0.00000   0.00069   0.00069   3.30001
    R4        5.05720   0.00002   0.00000  -0.00126  -0.00126   5.05595
    R5        5.03874   0.00003   0.00000   0.00077   0.00077   5.03951
    R6        5.52425   0.00005   0.00000   0.00100   0.00100   5.52526
    R7        3.30809   0.00014   0.00000   0.00099   0.00099   3.30908
    R8        3.29401   0.00010   0.00000   0.00055   0.00055   3.29456
    R9        3.27368   0.00012   0.00000   0.00066   0.00066   3.27434
   R10        5.10063   0.00005   0.00000   0.00032   0.00032   5.10095
   R11        3.26030   0.00016   0.00000   0.00057   0.00057   3.26087
   R12        3.29125   0.00016   0.00000   0.00088   0.00088   3.29213
   R13        5.46146   0.00005   0.00000  -0.00142  -0.00142   5.46004
   R14        3.29454   0.00012   0.00000   0.00082   0.00082   3.29536
   R15        3.24689   0.00013   0.00000   0.00064   0.00065   3.24753
   R16        3.28652   0.00019   0.00000   0.00117   0.00117   3.28769
   R17        3.23529   0.00021   0.00000   0.00072   0.00072   3.23601
   R18        1.81937   0.00004   0.00000   0.00023   0.00023   1.81960
   R19        1.81215   0.00004   0.00000   0.00006   0.00006   1.81221
    A1        2.00386   0.00006   0.00000   0.00022   0.00022   2.00407
    A2        1.98611   0.00001   0.00000  -0.00032  -0.00032   1.98579
    A3        1.68003   0.00003   0.00000  -0.00078  -0.00078   1.67925
    A4        1.64198   0.00005   0.00000  -0.00044  -0.00044   1.64154
    A5        1.98518   0.00003   0.00000   0.00006   0.00006   1.98525
    A6        1.62936   0.00003   0.00000   0.00002   0.00002   1.62938
    A7        1.59912   0.00002   0.00000   0.00011   0.00011   1.59923
    A8        1.66637   0.00004   0.00000   0.00056   0.00056   1.66694
    A9        1.86573   0.00004   0.00000  -0.00036  -0.00036   1.86537
   A10        1.29402   0.00001   0.00000  -0.00098  -0.00098   1.29304
   A11        1.64369   0.00003   0.00000   0.00057   0.00057   1.64426
   A12        1.76821   0.00003   0.00000  -0.00132  -0.00132   1.76689
   A13        1.65215   0.00004   0.00000   0.00071   0.00071   1.65287
   A14        2.05214   0.00004   0.00000   0.00074   0.00074   2.05288
   A15        2.00965   0.00001   0.00000  -0.00112  -0.00112   2.00853
   A16        1.75428   0.00004   0.00000  -0.00025  -0.00025   1.75403
   A17        1.97442   0.00003   0.00000   0.00045   0.00045   1.97486
   A18        1.64205   0.00004   0.00000  -0.00014  -0.00014   1.64191
   A19        1.66664   0.00007   0.00000   0.00085   0.00085   1.66749
   A20        1.61452   0.00002   0.00000  -0.00048  -0.00048   1.61404
   A21        1.61756   0.00002   0.00000   0.00086   0.00086   1.61842
   A22        1.97299   0.00003   0.00000  -0.00020  -0.00019   1.97280
   A23        2.00687   0.00006   0.00000   0.00066   0.00066   2.00753
   A24        1.29783   0.00001   0.00000  -0.00082  -0.00082   1.29702
   A25        1.71665   0.00005   0.00000   0.00075   0.00075   1.71740
   A26        1.84421   0.00004   0.00000  -0.00109  -0.00109   1.84311
   A27        2.00061   0.00002   0.00000   0.00011   0.00011   2.00072
   A28        1.50862   0.00005   0.00000   0.00064   0.00064   1.50926
   A29        2.65540   0.00001   0.00000  -0.00080  -0.00081   2.65458
   A30        1.50252   0.00005   0.00000   0.00023   0.00023   1.50276
   A31        2.01833   0.00010   0.00000   0.00025   0.00024   2.01857
   A32        2.12115  -0.00003   0.00000   0.00022   0.00022   2.12137
   A33        2.65855  -0.00002   0.00000  -0.00070  -0.00071   2.65784
   A34        2.11891  -0.00007   0.00000   0.00005   0.00005   2.11896
   A35        2.06749   0.00007   0.00000  -0.00211  -0.00211   2.06538
   A36        2.08497   0.00003   0.00000   0.00092   0.00092   2.08589
    D1       -1.92232  -0.00006   0.00000   0.00018   0.00018  -1.92214
    D2        0.07774  -0.00002   0.00000   0.00056   0.00056   0.07831
    D3        0.09222   0.00000   0.00000   0.00031   0.00031   0.09253
    D4        2.09228   0.00005   0.00000   0.00069   0.00069   2.09297
    D5       -1.49141  -0.00001   0.00000   0.00026   0.00026  -1.49115
    D6        0.50865   0.00003   0.00000   0.00064   0.00064   0.50929
    D7        1.98365   0.00002   0.00000  -0.00082  -0.00082   1.98283
    D8       -0.02782  -0.00001   0.00000  -0.00101  -0.00101  -0.02884
    D9       -0.01311   0.00000   0.00000  -0.00050  -0.00050  -0.01361
   D10       -2.02458  -0.00003   0.00000  -0.00070  -0.00070  -2.02528
   D11       -0.32443  -0.00002   0.00000   0.00196   0.00196  -0.32248
   D12        2.84764   0.00001   0.00000   0.00845   0.00845   2.85608
   D13        1.69038   0.00003   0.00000   0.00200   0.00200   1.69238
   D14       -1.42073   0.00005   0.00000   0.00849   0.00849  -1.41225
   D15        1.29921   0.00000   0.00000   0.00193   0.00193   1.30115
   D16       -1.81190   0.00003   0.00000   0.00842   0.00842  -1.80348
   D17       -0.07929  -0.00000   0.00000   0.00017   0.00017  -0.07912
   D18        1.52786   0.00001   0.00000   0.00117   0.00117   1.52902
   D19        1.94016   0.00007   0.00000   0.00084   0.00084   1.94100
   D20       -2.11542  -0.00003   0.00000   0.00120   0.00120  -2.11422
   D21       -0.50827  -0.00001   0.00000   0.00220   0.00220  -0.50608
   D22       -0.09597   0.00004   0.00000   0.00187   0.00187  -0.09410
   D23        1.30694  -0.00006   0.00000  -0.01242  -0.01242   1.29452
   D24        0.61583  -0.00012   0.00000  -0.01268  -0.01268   0.60315
   D25        2.36600  -0.00005   0.00000  -0.01230  -0.01230   2.35370
   D26        3.04470  -0.00000   0.00000  -0.01227  -0.01227   3.03242
   D27        0.35159   0.00003   0.00000  -0.00098  -0.00098   0.35060
   D28       -2.84939   0.00001   0.00000  -0.00852  -0.00852  -2.85790
   D29       -1.25156   0.00001   0.00000  -0.00021  -0.00021  -1.25177
   D30        1.83066  -0.00001   0.00000  -0.00775  -0.00775   1.82291
   D31       -1.65278  -0.00002   0.00000  -0.00086  -0.00086  -1.65364
   D32        1.42944  -0.00004   0.00000  -0.00840  -0.00840   1.42104
   D33       -0.25560  -0.00001   0.00000  -0.00692  -0.00692  -0.26251
   D34        0.02784   0.00000   0.00000  -0.00190  -0.00190   0.02594
   D35       -3.04424   0.00003   0.00000   0.00694   0.00694  -3.03730
   D36        2.92164   0.00002   0.00000   0.00067   0.00068   2.92231
         Item               Value     Threshold  Converged?
 Maximum Force            0.000214     0.000450     YES
 RMS     Force            0.000064     0.000300     YES
 Maximum Displacement     0.021581     0.001800     NO 
 RMS     Displacement     0.004010     0.001200     NO 
 Predicted change in Energy=-2.912866D-06
 GradGradGradGradGradGradGradGradGradGradGradGradGradGradGradGradGradGrad

                          Input orientation:                          
 ---------------------------------------------------------------------
 Center     Atomic      Atomic             Coordinates (Angstroms)
 Number     Number       Type             X           Y           Z
 ---------------------------------------------------------------------
      1         13           0        0.762846   -0.539454    1.484422
      2          8           0       -0.944719   -0.330063    1.561654
      3          8           0        1.296456   -1.801759    0.411621
      4          8           0        1.648170    0.955268    1.306845
      5         13           0        1.210556    1.392300   -0.311724
      6         13           0        0.761108   -1.146017   -1.112475
      7         13           0       -1.739248   -0.224992    0.004731
      8          8           0        1.626397    0.295001   -1.576886
      9          8           0       -0.944042   -1.050640   -1.303991
     10          8           0       -0.385389    2.068150   -0.488273
     11          8           0       -3.349276    0.339203   -0.143191
     12          1           0       -3.823486    0.625084    0.639777
     13          1           0       -0.729925    2.618449    0.222800
 ---------------------------------------------------------------------
                    Distance matrix (angstroms):
                    1          2          3          4          5
     1  Al   0.000000
     2  O    1.722088   0.000000
     3  O    1.740419   2.917419   0.000000
     4  O    1.746290   2.905181   2.919988   0.000000
     5  Al   2.675492   3.334859   3.276068   1.732705   0.000000
     6  Al   2.666795   3.275148   1.743406   3.324965   2.699308
     7  Al   2.923841   1.751092   3.444888   3.816166   3.378923
     8  O    3.288410   4.105091   2.908509   2.958433   1.725579
     9  O    3.309082   2.954852   2.920160   4.190429   3.405120
    10  O    3.465482   3.204134   4.314465   2.931947   1.742120
    11  O    4.508958   3.022632   5.145324   5.239905   4.682892
    12  H    4.806663   3.170089   5.670576   5.522049   5.180304
    13  H    3.713812   3.245364   4.866221   3.097847   2.356824
                    6          7          8          9         10
     6  Al   0.000000
     7  Al   2.889328   0.000000
     8  O    1.743829   3.754926   0.000000
     9  O    1.718520   1.739770   2.914169   0.000000
    10  O    3.469144   2.708226   2.894204   3.271749   0.000000
    11  O    4.476678   1.712421   5.178296   3.010692   3.448617
    12  H    5.217824   2.338795   5.892688   3.857134   3.895567
    13  H    4.263490   3.025136   3.766899   3.979843   0.962890
                   11         12         13
    11  O    0.000000
    12  H    0.958980   0.000000
    13  H    3.491405   3.703714   0.000000
 Stoichiometry    Al4H2O7
 Framework group  C1[X(Al4H2O7)]
 Deg. of freedom    33
 Full point group                 C1      NOp   1
 Largest Abelian subgroup         C1      NOp   1
 Largest concise Abelian subgroup C1      NOp   1
                         Standard orientation:                         
 ---------------------------------------------------------------------
 Center     Atomic      Atomic             Coordinates (Angstroms)
 Number     Number       Type             X           Y           Z
 ---------------------------------------------------------------------
      1         13           0        0.774146   -0.515695    1.489560
      2          8           0       -0.935324   -0.323933    1.570347
      3          8           0        1.317786   -1.785179    0.430351
      4          8           0        1.642501    0.986267    1.290570
      5         13           0        1.194565    1.398657   -0.331637
      6         13           0        0.770063   -1.154012   -1.099712
      7         13           0       -1.736318   -0.246581    0.015115
      8          8           0        1.617980    0.290522   -1.584785
      9          8           0       -0.936676   -1.079515   -1.286267
     10          8           0       -0.409255    2.054919   -0.510707
     11          8           0       -3.352903    0.298239   -0.133917
     12          1           0       -3.827498    0.588523    0.647195
     13          1           0       -0.757315    2.610114    0.194821
 ---------------------------------------------------------------------
 Rotational constants (GHZ):           1.0152645           0.6954547           0.6716482
 Standard basis: Aug-CC-pVDZ (5D, 7F)
 There are   309 symmetry adapted cartesian basis functions of A   symmetry.
 There are   287 symmetry adapted basis functions of A   symmetry.
   287 basis functions,   643 primitive gaussians,   309 cartesian basis functions
    55 alpha electrons       55 beta electrons
       nuclear repulsion energy      1068.5254336436 Hartrees.
 NAtoms=   13 NActive=   13 NUniq=   13 SFac= 1.00D+00 NAtFMM=   60 NAOKFM=F Big=F
 Integral buffers will be    131072 words long.
 Raffenetti 2 integral format.
 Two-electron integral symmetry is turned on.
 One-electron integrals computed using PRISM.
 NBasis=   287 RedAO= T EigKep=  1.11D-04  NBF=   287
 NBsUse=   287 1.00D-06 EigRej= -1.00D+00 NBFU=   287
 Initial guess from the checkpoint file:  "h2o-ts2.chk"
 B after Tr=     0.000000    0.000000   -0.000000
         Rot=    0.999992    0.003855   -0.000549   -0.001081 Ang=   0.46 deg.
 ExpMin= 1.53D-02 ExpMax= 6.42D+04 ExpMxC= 2.19D+03 IAcc=3 IRadAn=         5 AccDes= 0.00D+00
 Harris functional with IExCor= 1009 and IRadAn=       5 diagonalized for initial guess.
 HarFok:  IExCor= 1009 AccDes= 0.00D+00 IRadAn=         5 IDoV= 1 UseB2=F ITyADJ=14
 ICtDFT=  3500011 ScaDFX=  1.000000  1.000000  1.000000  1.000000
 FoFCou: FMM=F IPFlag=           0 FMFlag=      100000 FMFlg1=           0
         NFxFlg=           0 DoJE=T BraDBF=F KetDBF=T FulRan=T
         wScrn=  0.000000 ICntrl=       500 IOpCl=  0 I1Cent=   200000004 NGrid=           0
         NMat0=    1 NMatS0=      1 NMatT0=    0 NMatD0=    1 NMtDS0=    0 NMtDT0=    0
 Petite list used in FoFCou.
 Requested convergence on RMS density matrix=1.00D-08 within 128 cycles.
 Requested convergence on MAX density matrix=1.00D-06.
 Requested convergence on             energy=1.00D-06.
 No special actions if energy rises.
 SCF Done:  E(RM062X) =  -1497.91181916     A.U. after    9 cycles
            NFock=  9  Conv=0.59D-08     -V/T= 2.0043
 Calling FoFJK, ICntrl=      2127 FMM=F ISym2X=0 I1Cent= 0 IOpClX= 0 NMat=1 NMatS=1 NMatT=0.
 ***** Axes restored to original set *****
 -------------------------------------------------------------------
 Center     Atomic                   Forces (Hartrees/Bohr)
 Number     Number              X              Y              Z
 -------------------------------------------------------------------
      1       13           0.000003976    0.000006666   -0.000008327
      2        8          -0.000005008    0.000006223   -0.000004067
      3        8           0.000000503    0.000015738   -0.000001102
      4        8          -0.000013784   -0.000004250    0.000003170
      5       13           0.000004374   -0.000008425   -0.000000947
      6       13          -0.000010124   -0.000005681    0.000015101
      7       13          -0.000000067   -0.000015202    0.000002669
      8        8           0.000001947    0.000004983    0.000011753
      9        8           0.000014089    0.000007999    0.000007744
     10        8          -0.000003799    0.000003000    0.000011815
     11        8          -0.000002755   -0.000001368   -0.000018300
     12        1           0.000007861   -0.000009745   -0.000010052
     13        1           0.000002786    0.000000063   -0.000009457
 -------------------------------------------------------------------
 Cartesian Forces:  Max     0.000018300 RMS     0.000008352

 GradGradGradGradGradGradGradGradGradGradGradGradGradGradGradGradGradGrad
 Berny optimization.
 FormGI is forming the generalized inverse of G from B-inverse, IUseBI=4.
 Internal  Forces:  Max     0.000016228 RMS     0.000004335
 Search for a saddle point.
 Step number   3 out of a maximum of  100
 All quantities printed in internal units (Hartrees-Bohrs-Radians)
 Swapping is turned off.
 Update second derivatives using D2CorX and points    1    2    3
 ITU=  0  0  0
     Eigenvalues ---   -0.03201   0.00166   0.00265   0.00432   0.01195
     Eigenvalues ---    0.02197   0.02361   0.02475   0.02679   0.02822
     Eigenvalues ---    0.03945   0.04187   0.04718   0.05081   0.05736
     Eigenvalues ---    0.06200   0.06468   0.07329   0.07760   0.17832
     Eigenvalues ---    0.18398   0.18921   0.20156   0.20492   0.21026
     Eigenvalues ---    0.21621   0.22821   0.25410   0.25990   0.27249
     Eigenvalues ---    0.30403   0.53611   0.54867
 Eigenvectors required to have negative eigenvalues:
                          A12       A16       D21       D6        D27
   1                    0.29007   0.28419  -0.24494   0.23578   0.20757
                          D22       D11       D2        D20       A10
   1                   -0.19907  -0.19518   0.19320  -0.19009   0.18190
 RFO step:  Lambda0=6.804761876D-09 Lambda=-2.13912263D-08.
 Linear search not attempted -- option 19 set.
 Iteration  1 RMS(Cart)=  0.00010472 RMS(Int)=  0.00000003
 Iteration  2 RMS(Cart)=  0.00000003 RMS(Int)=  0.00000000
 Variable       Old X    -DE/DX   Delta X   Delta X   Delta X     New X
                                 (Linear)    (Quad)   (Total)
    R1        3.25427   0.00000   0.00000   0.00000   0.00000   3.25428
    R2        3.28891  -0.00001   0.00000  -0.00003  -0.00003   3.28889
    R3        3.30001  -0.00001   0.00000  -0.00004  -0.00004   3.29997
    R4        5.05595  -0.00000   0.00000  -0.00011  -0.00011   5.05584
    R5        5.03951  -0.00001   0.00000  -0.00001  -0.00001   5.03950
    R6        5.52526  -0.00000   0.00000  -0.00013  -0.00013   5.52513
    R7        3.30908  -0.00000   0.00000  -0.00000  -0.00000   3.30908
    R8        3.29456  -0.00001   0.00000  -0.00006  -0.00006   3.29450
    R9        3.27434  -0.00000   0.00000  -0.00002  -0.00002   3.27432
   R10        5.10095   0.00000   0.00000  -0.00012  -0.00012   5.10084
   R11        3.26087  -0.00001   0.00000  -0.00005  -0.00005   3.26082
   R12        3.29213  -0.00000   0.00000   0.00004   0.00004   3.29217
   R13        5.46004  -0.00000   0.00000  -0.00002  -0.00002   5.46002
   R14        3.29536  -0.00000   0.00000   0.00002   0.00002   3.29538
   R15        3.24753  -0.00001   0.00000  -0.00007  -0.00007   3.24746
   R16        3.28769  -0.00001   0.00000  -0.00004  -0.00004   3.28765
   R17        3.23601  -0.00001   0.00000   0.00002   0.00002   3.23603
   R18        1.81960  -0.00001   0.00000  -0.00001  -0.00001   1.81959
   R19        1.81221  -0.00001   0.00000   0.00000   0.00000   1.81221
    A1        2.00407   0.00000   0.00000   0.00005   0.00005   2.00412
    A2        1.98579  -0.00000   0.00000   0.00001   0.00001   1.98580
    A3        1.67925   0.00000   0.00000   0.00004   0.00004   1.67929
    A4        1.64154   0.00000   0.00000   0.00004   0.00004   1.64157
    A5        1.98525  -0.00000   0.00000  -0.00004  -0.00004   1.98520
    A6        1.62938  -0.00000   0.00000  -0.00005  -0.00005   1.62933
    A7        1.59923  -0.00000   0.00000   0.00004   0.00004   1.59927
    A8        1.66694   0.00000   0.00000   0.00001   0.00001   1.66694
    A9        1.86537   0.00000   0.00000  -0.00003  -0.00003   1.86534
   A10        1.29304   0.00000   0.00000  -0.00003  -0.00003   1.29301
   A11        1.64426  -0.00000   0.00000   0.00005   0.00005   1.64431
   A12        1.76689   0.00000   0.00000  -0.00018  -0.00018   1.76671
   A13        1.65287  -0.00000   0.00000   0.00004   0.00004   1.65290
   A14        2.05288   0.00000   0.00000   0.00005   0.00005   2.05293
   A15        2.00853  -0.00000   0.00000  -0.00015  -0.00015   2.00838
   A16        1.75403   0.00001   0.00000  -0.00009  -0.00009   1.75394
   A17        1.97486   0.00000   0.00000   0.00003   0.00003   1.97489
   A18        1.64191  -0.00000   0.00000   0.00001   0.00001   1.64192
   A19        1.66749  -0.00000   0.00000  -0.00003  -0.00003   1.66746
   A20        1.61404  -0.00000   0.00000  -0.00004  -0.00004   1.61400
   A21        1.61842   0.00000   0.00000   0.00002   0.00002   1.61843
   A22        1.97280  -0.00000   0.00000  -0.00004  -0.00004   1.97275
   A23        2.00753   0.00000   0.00000   0.00005   0.00005   2.00758
   A24        1.29702   0.00000   0.00000  -0.00004  -0.00004   1.29698
   A25        1.71740  -0.00000   0.00000  -0.00007  -0.00007   1.71733
   A26        1.84311   0.00000   0.00000  -0.00003  -0.00003   1.84308
   A27        2.00072  -0.00000   0.00000  -0.00006  -0.00006   2.00066
   A28        1.50926  -0.00000   0.00000  -0.00001  -0.00001   1.50926
   A29        2.65458   0.00000   0.00000   0.00008   0.00008   2.65467
   A30        1.50276   0.00000   0.00000   0.00004   0.00004   1.50279
   A31        2.01857   0.00000   0.00000   0.00001   0.00001   2.01858
   A32        2.12137   0.00000   0.00000   0.00005   0.00005   2.12142
   A33        2.65784  -0.00000   0.00000  -0.00008  -0.00008   2.65776
   A34        2.11896  -0.00000   0.00000  -0.00008  -0.00008   2.11889
   A35        2.06538  -0.00000   0.00000  -0.00000  -0.00000   2.06538
   A36        2.08589  -0.00002   0.00000  -0.00032  -0.00032   2.08557
    D1       -1.92214   0.00000   0.00000  -0.00003  -0.00003  -1.92217
    D2        0.07831   0.00000   0.00000  -0.00002  -0.00002   0.07829
    D3        0.09253   0.00000   0.00000   0.00002   0.00002   0.09255
    D4        2.09297   0.00001   0.00000   0.00003   0.00003   2.09300
    D5       -1.49115   0.00000   0.00000  -0.00004  -0.00004  -1.49120
    D6        0.50929   0.00001   0.00000  -0.00003  -0.00003   0.50926
    D7        1.98283  -0.00000   0.00000   0.00002   0.00002   1.98285
    D8       -0.02884  -0.00000   0.00000   0.00008   0.00008  -0.02875
    D9       -0.01361  -0.00000   0.00000   0.00001   0.00001  -0.01360
   D10       -2.02528   0.00000   0.00000   0.00007   0.00007  -2.02521
   D11       -0.32248  -0.00000   0.00000   0.00003   0.00003  -0.32245
   D12        2.85608   0.00000   0.00000  -0.00000  -0.00000   2.85608
   D13        1.69238  -0.00000   0.00000  -0.00000  -0.00000   1.69238
   D14       -1.41225   0.00000   0.00000  -0.00003  -0.00003  -1.41228
   D15        1.30115  -0.00000   0.00000  -0.00003  -0.00003   1.30111
   D16       -1.80348   0.00000   0.00000  -0.00007  -0.00007  -1.80355
   D17       -0.07912  -0.00000   0.00000  -0.00004  -0.00004  -0.07916
   D18        1.52902  -0.00000   0.00000  -0.00001  -0.00001   1.52901
   D19        1.94100  -0.00000   0.00000  -0.00000  -0.00000   1.94100
   D20       -2.11422  -0.00000   0.00000   0.00012   0.00012  -2.11410
   D21       -0.50608   0.00000   0.00000   0.00015   0.00015  -0.50593
   D22       -0.09410   0.00000   0.00000   0.00016   0.00016  -0.09394
   D23        1.29452   0.00000   0.00000   0.00040   0.00040   1.29492
   D24        0.60315   0.00000   0.00000   0.00044   0.00044   0.60359
   D25        2.35370   0.00000   0.00000   0.00039   0.00039   2.35409
   D26        3.03242   0.00000   0.00000   0.00038   0.00038   3.03280
   D27        0.35060   0.00000   0.00000  -0.00011  -0.00011   0.35049
   D28       -2.85790   0.00000   0.00000   0.00007   0.00007  -2.85783
   D29       -1.25177   0.00001   0.00000  -0.00006  -0.00006  -1.25183
   D30        1.82291   0.00000   0.00000   0.00012   0.00012   1.82303
   D31       -1.65364   0.00000   0.00000  -0.00007  -0.00007  -1.65370
   D32        1.42104   0.00000   0.00000   0.00012   0.00012   1.42116
   D33       -0.26251  -0.00000   0.00000  -0.00043  -0.00043  -0.26294
   D34        0.02594  -0.00000   0.00000  -0.00039  -0.00039   0.02555
   D35       -3.03730  -0.00000   0.00000  -0.00060  -0.00060  -3.03790
   D36        2.92231   0.00000   0.00000  -0.00047  -0.00047   2.92185
         Item               Value     Threshold  Converged?
 Maximum Force            0.000016     0.000450     YES
 RMS     Force            0.000004     0.000300     YES
 Maximum Displacement     0.000469     0.001800     YES
 RMS     Displacement     0.000105     0.001200     YES
 Predicted change in Energy=-7.293221D-09
 Optimization completed.
    -- Stationary point found.
                           ----------------------------
                           !   Optimized Parameters   !
                           ! (Angstroms and Degrees)  !
 --------------------------                            --------------------------
 ! Name  Definition              Value          Derivative Info.                !
 --------------------------------------------------------------------------------
 ! R1    R(1,2)                  1.7221         -DE/DX =    0.0                 !
 ! R2    R(1,3)                  1.7404         -DE/DX =    0.0                 !
 ! R3    R(1,4)                  1.7463         -DE/DX =    0.0                 !
 ! R4    R(1,5)                  2.6755         -DE/DX =    0.0                 !
 ! R5    R(1,6)                  2.6668         -DE/DX =    0.0                 !
 ! R6    R(1,7)                  2.9238         -DE/DX =    0.0                 !
 ! R7    R(2,7)                  1.7511         -DE/DX =    0.0                 !
 ! R8    R(3,6)                  1.7434         -DE/DX =    0.0                 !
 ! R9    R(4,5)                  1.7327         -DE/DX =    0.0                 !
 ! R10   R(5,6)                  2.6993         -DE/DX =    0.0                 !
 ! R11   R(5,8)                  1.7256         -DE/DX =    0.0                 !
 ! R12   R(5,10)                 1.7421         -DE/DX =    0.0                 !
 ! R13   R(6,7)                  2.8893         -DE/DX =    0.0                 !
 ! R14   R(6,8)                  1.7438         -DE/DX =    0.0                 !
 ! R15   R(6,9)                  1.7185         -DE/DX =    0.0                 !
 ! R16   R(7,9)                  1.7398         -DE/DX =    0.0                 !
 ! R17   R(7,11)                 1.7124         -DE/DX =    0.0                 !
 ! R18   R(10,13)                0.9629         -DE/DX =    0.0                 !
 ! R19   R(11,12)                0.959          -DE/DX =    0.0                 !
 ! A1    A(2,1,3)              114.8249         -DE/DX =    0.0                 !
 ! A2    A(2,1,4)              113.7774         -DE/DX =    0.0                 !
 ! A3    A(2,1,5)               96.214          -DE/DX =    0.0                 !
 ! A4    A(2,1,6)               94.0532         -DE/DX =    0.0                 !
 ! A5    A(3,1,4)              113.7462         -DE/DX =    0.0                 !
 ! A6    A(3,1,5)               93.3568         -DE/DX =    0.0                 !
 ! A7    A(3,1,7)               91.6292         -DE/DX =    0.0                 !
 ! A8    A(4,1,6)               95.5084         -DE/DX =    0.0                 !
 ! A9    A(4,1,7)              106.8776         -DE/DX =    0.0                 !
 ! A10   A(5,1,7)               74.0856         -DE/DX =    0.0                 !
 ! A11   A(1,5,8)               94.2094         -DE/DX =    0.0                 !
 ! A12   A(1,5,10)             101.2355         -DE/DX =    0.0                 !
 ! A13   A(4,5,6)               94.7024         -DE/DX =    0.0                 !
 ! A14   A(4,5,8)              117.6216         -DE/DX =    0.0                 !
[...]
 ! A25   A(5,6,9)               98.3998         -DE/DX =    0.0                 !
 ! A26   A(7,6,8)              105.6025         -DE/DX =    0.0                 !
 ! A27   A(8,6,9)              114.6327         -DE/DX =    0.0                 !
 ! A28   A(1,7,9)               86.4744         -DE/DX =    0.0                 !
 ! A29   A(1,7,11)             152.0965         -DE/DX =    0.0                 !
 ! A30   A(2,7,6)               86.1017         -DE/DX =    0.0                 !
 ! A31   A(2,7,9)              115.6556         -DE/DX =    0.0                 !
 ! A32   A(2,7,11)             121.5455         -DE/DX =    0.0                 !
 ! A33   A(6,7,11)             152.283          -DE/DX =    0.0                 !
 ! A34   A(9,7,11)             121.4077         -DE/DX =    0.0                 !
 ! A35   A(5,10,13)            118.3377         -DE/DX =    0.0                 !
 ! A36   A(7,11,12)            119.5128         -DE/DX =    0.0                 !
 ! D1    D(2,1,5,8)           -110.1303         -DE/DX =    0.0                 !
 ! D2    D(2,1,5,10)             4.4866         -DE/DX =    0.0                 !
 ! D3    D(3,1,5,8)              5.3018         -DE/DX =    0.0                 !
 ! D4    D(3,1,5,10)           119.9186         -DE/DX =    0.0                 !
 ! D5    D(7,1,5,8)            -85.4368         -DE/DX =    0.0                 !
 ! D6    D(7,1,5,10)            29.18           -DE/DX =    0.0                 !
 ! D7    D(2,1,6,8)            113.6077         -DE/DX =    0.0                 !
 ! D8    D(2,1,6,9)             -1.6523         -DE/DX =    0.0                 !
 ! D9    D(4,1,6,8)             -0.7798         -DE/DX =    0.0                 !
 ! D10   D(4,1,6,9)           -116.0397         -DE/DX =    0.0                 !
 ! D11   D(3,1,7,9)            -18.4766         -DE/DX =    0.0                 !
 ! D12   D(3,1,7,11)           163.6414         -DE/DX =    0.0                 !
 ! D13   D(4,1,7,9)             96.9662         -DE/DX =    0.0                 !
 ! D14   D(4,1,7,11)           -80.9158         -DE/DX =    0.0                 !
 ! D15   D(5,1,7,9)             74.5501         -DE/DX =    0.0                 !
 ! D16   D(5,1,7,11)          -103.3319         -DE/DX =    0.0                 !
 ! D17   D(4,5,6,3)             -4.5331         -DE/DX =    0.0                 !
 ! D18   D(4,5,6,7)             87.6067         -DE/DX =    0.0                 !
 ! D19   D(4,5,6,9)            111.2112         -DE/DX =    0.0                 !
 ! D20   D(10,5,6,3)          -121.1359         -DE/DX =    0.0                 !
 ! D21   D(10,5,6,7)           -28.9961         -DE/DX =    0.0                 !
 ! D22   D(10,5,6,9)            -5.3916         -DE/DX =    0.0                 !
 ! D23   D(1,5,10,13)           74.1705         -DE/DX =    0.0                 !
 ! D24   D(4,5,10,13)           34.5581         -DE/DX =    0.0                 !
 ! D25   D(6,5,10,13)          134.8571         -DE/DX =    0.0                 !
 ! D26   D(8,5,10,13)          173.7452         -DE/DX =    0.0                 !
 ! D27   D(3,6,7,2)             20.0881         -DE/DX =    0.0                 !
 ! D28   D(3,6,7,11)          -163.7457         -DE/DX =    0.0                 !
 ! D29   D(5,6,7,2)            -71.7211         -DE/DX =    0.0                 !
 ! D30   D(5,6,7,11)           104.445          -DE/DX =    0.0                 !
 ! D31   D(8,6,7,2)            -94.7464         -DE/DX =    0.0                 !
 ! D32   D(8,6,7,11)            81.4197         -DE/DX =    0.0                 !
 ! D33   D(1,7,11,12)          -15.0408         -DE/DX =    0.0                 !
 ! D34   D(2,7,11,12)            1.486          -DE/DX =    0.0                 !
 ! D35   D(6,7,11,12)         -174.0245         -DE/DX =    0.0                 !
 ! D36   D(9,7,11,12)          167.4363         -DE/DX =    0.0                 !
 --------------------------------------------------------------------------------
 GradGradGradGradGradGradGradGradGradGradGradGradGradGradGradGradGradGrad


 ----------------------------------------------------------------------

 Electric dipole moment (input orientation):
 (Debye = 10**-18 statcoulomb cm , SI units = C m)
                  (au)            (Debye)         (10**-30 SI)
   Tot        0.123455D+01      0.313793D+01      0.104670D+02
   x          0.832342D+00      0.211560D+01      0.705689D+01
   y          0.466677D+00      0.118618D+01      0.395665D+01
   z          0.783291D+00      0.199093D+01      0.664102D+01

 Dipole polarizability, Alpha (input orientation).
 (esu units = cm**3 , SI units = C**2 m**2 J**-1)
 Alpha(0;0):
               (au)            (10**-24 esu)      (10**-40 SI)
   iso        0.912327D+02      0.135193D+02      0.150422D+02
   aniso      0.763136D+01      0.113085D+01      0.125824D+01
   xx         0.961460D+02      0.142474D+02      0.158523D+02
   yx        -0.352164D+00     -0.521853D-01     -0.580639D-01
   yy         0.894744D+02      0.132587D+02      0.147523D+02
   zx        -0.561376D+00     -0.831873D-01     -0.925583D-01
   zy         0.616607D+00      0.913717D-01      0.101665D+00
   zz         0.880777D+02      0.130518D+02      0.145220D+02

 ----------------------------------------------------------------------

 Dipole orientation:
    13         -0.69162505         -2.21545797          2.36634925
     8         -3.18116111         -1.40638123          0.43298261
     8          1.77508328         -3.78321312          0.85822034
     8          0.30193585          0.22819787          4.34913597
    13          1.63832796          2.26702197          2.16314730
    13          2.79333947         -1.40590776         -1.18278277
    13         -2.31239309          0.12110150         -2.37095766
     8          4.14083584          1.15593613          0.39220807
     8          0.68309330         -0.60218388         -3.51673941
     8         -0.51305225          4.02891126          0.40092452
     8         -4.48655676          1.67414062         -4.19655923
     1         -6.21525508          1.74757278         -3.65775436
     1         -2.05116318          4.57148388          1.20762642

 Electric dipole moment (dipole orientation):
 (Debye = 10**-18 statcoulomb cm , SI units = C m)
                  (au)            (Debye)         (10**-30 SI)
   Tot        0.123455D+01      0.313793D+01      0.104670D+02
   x          0.000000D+00      0.000000D+00      0.000000D+00
   y          0.000000D+00      0.000000D+00      0.000000D+00
   z          0.123455D+01      0.313793D+01      0.104670D+02

 Dipole polarizability, Alpha (dipole orientation).
 (esu units = cm**3 , SI units = C**2 m**2 J**-1)
 Alpha(0;0):
               (au)            (10**-24 esu)      (10**-40 SI)
   iso        0.912327D+02      0.135193D+02      0.150422D+02
   aniso      0.763136D+01      0.113085D+01      0.125824D+01
   xx         0.930717D+02      0.137918D+02      0.153455D+02
   yx        -0.159635D+01     -0.236555D+00     -0.263202D+00
   yy         0.890456D+02      0.131952D+02      0.146816D+02
   zx         0.356540D+01      0.528338D+00      0.587855D+00
   zy        -0.947880D-01     -0.140461D-01     -0.156284D-01
   zz         0.915807D+02      0.135709D+02      0.150996D+02

 ----------------------------------------------------------------------
 Unable to Open any file for archive entry.
 1\1\GINC-NODE166\Freq\RM062X\Aug-CC-pVDZ\Al4H2O7\XIONG\01-Jul-2025\0\\
 #N Geom=AllCheck Guess=TCheck SCRF=Check GenChk RM062X/Aug-CC-pVDZ Fre
 q\\Title Card Required\\0,1\Al,0.7628456444,-0.5394535768,1.4844217511
 \O,-0.9447190529,-0.3300627424,1.5616535938\O,1.2964560356,-1.80175893
 47,0.4116206725\O,1.6481703239,0.9552684821,1.3068445772\Al,1.21055556
 78,1.3923001074,-0.3117241677\Al,0.7611076642,-1.1460174179,-1.1124752
 552\Al,-1.7392481805,-0.224992378,0.0047310329\O,1.6263969795,0.295001
 3985,-1.5768858277\O,-0.9440421481,-1.0506400932,-1.3039906527\O,-0.38
 5389313,2.0681501264,-0.4882725729\O,-3.3492756687,0.3392028865,-0.143
 1906796\H,-3.8234861344,0.6250841834,0.6397768937\H,-0.7299247181,2.61
 84489585,0.2227996345\\Version=ES64L-G16RevC.01\State=1-A\HF=-1497.911
 8192\RMSD=2.231e-09\RMSF=8.351e-06\ZeroPoint=0.0530189\Thermal=0.06451
 96\ETot=-1497.8472995\HTot=-1497.8463553\GTot=-1497.8957831\Dipole=0.8
 323421,0.4666772,0.7832909\DipoleDeriv=1.5883245,0.0580135,-0.0326923,
 0.0492894,1.5331786,0.0571358,-0.0744352,0.0725421,1.4243022,-1.324017
 5,0.0463429,-0.046547,0.051888,-0.7881188,0.01796,-0.1370831,0.0529584
 ,-1.0936842,-0.8752406,0.1208853,-0.0314263,0.1215121,-1.034808,-0.016
 9504,-0.0222982,-0.0246324,-1.1019095,-0.9026738,-0.1270719,-0.06545,-
 0.1317164,-1.0766438,0.057074,-0.074034,0.0754827,-1.0394648,1.4768475
 ,-0.1547014,-0.0155554,-0.1273076,1.5719645,0.0128566,0.018602,-0.0142
 838,1.5559024,1.5857802,0.0698431,0.0089389,0.084211,1.4648304,-0.0558
 047,0.0434186,-0.07465,1.5095091,2.1246761,-0.108093,-0.0219593,-0.137
 1065,1.4171691,0.0723338,0.0466155,0.039543,1.5182436,-0.8774851,-0.11
 03134,0.1116789,-0.1084174,-1.1140579,-0.0301059,0.1215408,-0.0355982,
 -0.9911111,-1.265392,0.0521423,0.0259814,0.0803222,-0.8568288,-0.14198
 52,0.0886245,-0.1618946,-0.9849967,-0.9675645,0.0936639,0.0034982,0.03
 96845,-1.01047,0.0870874,0.019053,0.1006128,-0.603961,-1.2183376,0.102
 7606,0.0052599,0.1454693,-0.7151722,0.0026295,-0.0059955,0.011691,-0.6
 047499,0.3651734,-0.0130999,0.026117,-0.0259174,0.2753023,-0.0267718,-
 0.0201217,-0.0133086,0.1992252,0.2899094,-0.030372,0.032156,-0.0419112
 ,0.3336546,-0.0354592,-0.0038865,-0.0284626,0.2126947\Polar=96.1460088
 ,-0.3521636,89.4743673,-0.5613756,0.6166066,88.0776934\Quadrupole=-5.6
 754867,5.4386311,0.2368555,0.0949686,-5.2855193,2.1282798\PG=C01 [X(Al
 4H2O7)]\NImag=1\\0.33632678,0.01331951,0.30772129,-0.04456200,0.049004
 32,0.20824844,-0.22340032,0.02373437,0.01212777,0.31001639,0.02217918,
 -0.02650124,-0.00220425,-0.03320946,0.04176394,0.01138368,-0.00093328,
 -0.03007500,0.06476311,-0.00166224,0.18936873,-0.04295056,0.04052886,0
 .02955901,-0.00704656,0.01155621,0.00722275,0.08500567,0.04142102,-0.1
 2037674,-0.07321927,0.00717016,0.00183290,-0.00304947,-0.06678979,0.17
 814823,0.03305453,-0.07780779,-0.09556780,0.01282263,-0.00901783,0.009
 67753,0.01515479,0.02196720,0.25942299,-0.07001639,-0.07232691,0.00458
 637,-0.01385199,-0.01206074,-0.00153139,0.00679926,-0.00000569,0.00030
 988,0.10812049,-0.07514079,-0.14861447,0.01166181,-0.01103002,0.002011
 48,-0.00353348,-0.00672822,-0.01451135,-0.01340633,0.06936107,0.196760
 59,0.00758369,0.01651835,-0.03351028,0.00800084,0.00244587,0.01265385,
 -0.00054136,-0.00535007,0.01121841,0.03940993,-0.06016960,0.22310460,0
 .01788100,-0.00556568,0.00708049,-0.00575345,0.00607796,-0.00771162,-0
 .00554892,-0.00343993,0.00109059,-0.03787677,0.01111710,-0.04600338,0.
 25231141,-0.00754926,-0.01538177,0.03462749,0.00620846,-0.00368186,-0.
 00110966,0.00164656,0.00628766,-0.00614503,0.00813018,-0.04351897,0.04
 090435,-0.10411442,0.25511134,0.01015232,0.03912323,-0.01013677,-0.011
 24588,-0.00639060,-0.00524423,-0.00041614,-0.00557026,-0.01828280,-0.0
 4259048,0.04491731,-0.18683194,0.01733476,0.03434270,0.35440673,0.0220
 0242,-0.00139908,-0.00075635,-0.00904181,-0.00105918,-0.01336648,-0.04
 290204,0.02184768,-0.04692114,-0.00486686,0.00298867,0.00638808,0.0168
 5403,-0.01064314,-0.00571757,0.34222481,-0.00097341,0.01988429,-0.0136
 7281,0.00146654,-0.00632578,0.00150629,0.02277235,-0.05495309,0.056454
 36,-0.00090404,-0.00775813,0.01160401,-0.00674969,-0.04076622,-0.02297
 764,0.03852942,0.24979909,0.00084055,-0.02024048,-0.04743733,-0.010892
 26,0.00558584,-0.00093567,-0.04364055,0.05180996,-0.15724704,0.0023704
 5,0.01244211,-0.00514664,-0.00414927,-0.01747990,0.01648882,0.03878141
 ,-0.06433400,0.26218945,-0.01951797,0.00161097,-0.01633569,-0.06633788
 ,0.00807749,-0.06661540,0.00497334,-0.00252021,0.00112776,0.00307504,0
 .00153948,0.00199207,-0.01183734,-0.00697498,0.00101516,-0.02196954,0.
 01016950,0.01418937,0.40763985,0.00624257,0.00969276,0.00510559,0.0055
 8390,-0.02289557,0.00572499,-0.00598967,-0.00255921,-0.00450792,0.0012
 2517,-0.00780494,0.00354552,-0.01901377,0.01457722,0.00059789,0.018396
 75,0.00596599,-0.00338271,-0.14374313,0.11636422,-0.02722873,0.0046327
 4,0.00749027,-0.06325369,0.00807537,-0.15717835,0.00144767,-0.00414190
 ,-0.01837855,0.00856183,0.00570732,-0.00792578,0.00323879,0.00027463,0
 .01440057,0.02153918,-0.00335859,0.01233416,0.01713191,0.06315079,0.31
 431211,-0.00496769,-0.00189182,-0.00212509,0.00265327,0.00042678,0.003
 28822,0.00694111,-0.00027087,-0.00022309,0.00803747,0.00176019,-0.0043
 8410,-0.03507322,0.02531380,0.03496133,-0.06849546,-0.06756817,0.02622
 481,0.00383961,-0.00302902,-0.00808960,0.10356562,-0.00030761,-0.01700
 081,-0.00687369,-0.00053952,0.00552576,0.00167117,-0.00558637,-0.00269
 693,0.02024862,0.00349560,0.01198462,-0.00943700,0.02814926,-0.1072268
 5,-0.09065067,-0.07231461,-0.14263741,0.03822396,0.00089282,-0.0113925
 3,-0.00427278,0.04678168,0.25935644,-0.00710910,-0.00594074,0.00412150
 ,0.00392215,0.00092714,0.00215043,0.00322296,0.01236444,-0.00104457,0.
 00295942,-0.00371695,-0.01477822,0.03687660,-0.08674563,-0.13094127,0.
 02489142,0.03342050,-0.04251099,-0.00227225,-0.00227835,-0.00453024,-0
 .06242385,0.05280399,0.17411914,-0.00912727,0.00618580,0.00845214,0.01
 300179,0.00007785,0.00382270,-0.00669216,0.00014723,-0.01475153,0.0027
 3558,-0.00225165,-0.00320154,-0.00605647,0.00982404,0.00740189,-0.2290
 1675,0.00907392,-0.02564585,-0.06685712,0.03767688,0.05900340,-0.01308
 463,-0.01315605,-0.00305708,0.31760631,0.00515805,-0.00773194,-0.00188
 754,-0.00158089,0.00596361,-0.00552052,0.00666638,0.00834698,0.0096099
 9,-0.00110584,0.00360720,-0.00168510,0.00744977,0.00000896,0.00425022,
 0.00980645,-0.02526363,-0.00082596,0.03972391,-0.06077418,-0.06549133,
 -0.01067864,0.00374552,0.00128912,-0.05635225,0.07762761,0.01180862,0.
 00200367,0.00087057,-0.00307474,-0.00676401,-0.01668277,-0.01146339,0.
 00344169,0.00299636,-0.00302779,-0.00240927,0.00357528,0.00420935,-0.0
 0081139,-0.00739652,-0.02331465,-0.00208397,-0.03073545,0.05938623,-0.
 06378544,-0.12755466,0.00588531,0.00711933,0.01002454,-0.04098283,0.06
 687662,0.16088979,-0.01066281,-0.00628954,0.00178511,0.00775683,-0.004
 42385,0.00441071,0.00301830,0.00241414,-0.00048565,-0.00231968,0.01250
 378,-0.00951969,-0.17525764,0.06474788,-0.02373156,-0.00822079,-0.0058
 6070,0.00089358,-0.00172057,0.02441020,-0.00296801,-0.00145499,0.01150
 410,0.00317908,0.00662132,-0.00297346,-0.00194037,0.27271939,-0.004562
 14,0.00060701,-0.00193288,0.00001181,-0.00464250,0.00591938,0.00124949
 ,-0.00038293,0.00099253,0.00618042,0.00519045,0.00256309,0.08284857,-0
 .05854976,0.00778449,-0.00235027,0.00261812,-0.00027678,0.01331697,0.0
 0923303,-0.00232090,0.00731566,-0.00283651,-0.00257875,-0.00012259,-0.
 00564217,-0.00198529,-0.20432703,0.23789465,0.00059715,-0.00621669,-0.
 00234771,0.00067094,0.00654233,-0.00097056,-0.00037601,0.00112054,0.00
 454474,-0.01011256,0.00962031,-0.00211572,-0.00516547,-0.00022626,-0.0
 2439286,0.00142816,0.00447035,-0.00474956,-0.00172282,-0.00450904,-0.0
 0996983,0.00678841,-0.01043892,0.00160640,-0.00110435,-0.00316047,0.00
 237429,-0.12314222,0.21985926,0.32725640,0.00449079,-0.00016324,0.0000
 5558,-0.00989550,0.00387133,-0.00592420,-0.00178062,0.00086660,0.00005
 975,-0.00165953,-0.00071124,-0.00017932,0.00248502,0.00019614,-0.00027
 737,0.00386549,-0.00028731,-0.00029499,-0.21995524,0.07273090,-0.02235
 194,-0.00147854,-0.00048473,0.00054018,-0.00734215,0.00416312,0.002945
 16,-0.00399977,-0.00277906,0.00081831,0.38238207,-0.00175798,-0.000949
 59,-0.00030388,0.00445588,0.00480105,0.00147573,0.00111283,0.00039049,
 0.00071246,0.00025262,0.00178856,-0.00071581,0.00236042,-0.00331745,0.
 00017881,-0.00357218,-0.00113153,-0.00042331,0.07374481,-0.04361248,0.
 00686255,0.00074485,0.00221522,0.00031262,0.00802970,0.00031303,-0.002
 15902,-0.00526214,0.00119569,0.00056715,-0.16463085,0.09091040,0.00430
 017,-0.00063524,-0.00256690,-0.01410180,0.00342042,-0.00039015,-0.0002
 6023,0.00074768,0.00339312,-0.00140019,-0.00106341,0.00164164,-0.00050
 655,0.00022761,-0.00249848,-0.00342916,-0.00027668,-0.00296326,0.00251
 060,-0.00233965,-0.02390800,0.00124760,0.00076400,0.00098637,0.0113912
 0,-0.00476583,0.00098168,0.00131360,0.00030881,0.00169574,-0.21235714,
 0.13203723,0.38961373,-0.00155187,0.00022937,0.00029842,0.00382717,-0.
 00140727,0.00029945,0.00041225,-0.00037548,-0.00068797,0.00061068,0.00
 024949,-0.00023330,-0.00047614,-0.00000742,0.00051985,0.00019577,0.000
 26126,0.00069884,-0.01521185,0.00775924,0.01427456,0.00005585,-0.00014
 670,-0.00029399,-0.00119129,0.00074333,-0.00030225,0.00039188,0.000077
 00,-0.00050738,-0.14720771,0.08239292,0.21096455,0.16057237,0.00063166
 ,0.00011632,-0.00013172,-0.00172153,-0.00037421,-0.00005547,-0.0001870
 6,-0.00000257,0.00024324,-0.00023044,-0.00030166,0.00011907,-0.0000419
 8,0.00023499,-0.00019807,0.00015730,0.00020404,-0.00035792,0.00440864,
 -0.00191116,-0.00550554,0.00005391,-0.00007175,0.00009832,0.00105829,0
 .00055659,-0.00001642,-0.00017104,-0.00077636,-0.00003294,0.08591429,-
 0.05330111,-0.12902638,-0.08935710,0.05552975,-0.00019744,0.00002147,0
 .00022698,0.00005038,-0.00001751,-0.00134247,-0.00002293,-0.00001008,-
 0.00027544,0.00001582,0.00007576,-0.00021562,0.00027958,-0.00012747,0.
 00027607,0.00033759,-0.00006076,0.00032105,-0.00995050,0.00364485,-0.0
 0106267,-0.00019426,-0.00003822,-0.00007387,-0.00146724,0.00067159,0.0
 0072608,-0.00064181,-0.00017005,-0.00008023,0.23684600,-0.13882902,-0.
 36533273,-0.22521930,0.13478795,0.36666839,0.00149388,0.00202739,-0.00
 016575,-0.00192794,-0.00010631,-0.00004152,-0.00022908,-0.00046486,-0.
 00055054,0.00121270,-0.00365787,0.00068806,-0.01165152,0.01322215,0.01
 259369,-0.00062927,0.00007034,0.00062390,0.00387967,-0.00225002,-0.001
 30538,-0.00053840,0.00171213,-0.00043554,-0.00059717,-0.00101993,-0.00
 012865,-0.08687149,0.10314119,0.13182785,0.00009567,0.00212912,0.00032
 736,-0.00042709,-0.00051493,0.00016410,0.09619005,0.00133918,-0.001465
 10,-0.00017317,-0.00054971,0.00252241,-0.00043343,-0.00025155,0.000476
 58,0.00065650,-0.00201140,0.00116662,-0.00034266,0.00092238,-0.0037772
 9,-0.00540739,-0.00038780,0.00036427,-0.00074081,-0.00024627,-0.004883
 15,-0.00361235,0.00104164,0.00103523,0.00004428,-0.00019116,-0.0007575
 8,0.00057348,0.11372765,-0.18390873,-0.21759561,0.00131404,0.00069772,
 0.00060144,-0.00041863,0.00009713,0.00005149,-0.11428838,0.18843189,-0
 .00062344,0.00047045,0.00068401,0.00021055,-0.00094052,-0.00103136,0.0
 0011343,-0.00011044,-0.00045694,0.00044873,-0.00012557,-0.00166959,-0.
 00657388,0.00226855,0.00015266,0.00013951,-0.00069105,0.00039246,-0.00
 045646,-0.00096650,0.00197097,-0.00095569,0.00088020,0.00087076,0.0001
 3910,0.00063921,-0.00006920,0.15084723,-0.22816291,-0.29285111,0.00011
 998,0.00028448,-0.00065275,0.00018852,0.00007589,0.00016444,-0.1435975
 8,0.22637823,0.29249565\\-0.00000398,-0.00000665,0.00000830,0.00000503
 ,-0.00000623,0.00000407,-0.00000051,-0.00001573,0.00000110,0.00001376,
 0.00000423,-0.00000319,-0.00000436,0.00000842,0.00000094,0.00001015,0.
 00000572,-0.00001508,0.00000006,0.00001520,-0.00000265,-0.00000197,-0.
 00000499,-0.00001172,-0.00001409,-0.00000802,-0.00000777,0.00000381,-0
 .00000300,-0.00001182,0.00000277,0.00000136,0.00001829,-0.00000787,0.0
 0000975,0.00001006,-0.00000278,-0.00000007,0.00000946\\\@
 The archive entry for this job was punched.


 Sometimes the fool who rushes in gets the job done.
                                    -- Al Bernstein
 Job cpu time:       0 days  2 hours 25 minutes 55.7 seconds.
 Elapsed time:       0 days  0 hours  2 minutes 17.7 seconds.
 File lengths (MBytes):  RWF=    139 Int=      0 D2E=      0 Chk=      8 Scr=      1
 Normal termination of Gaussian 16 at Tue Jul  1 17:56:14 2025.
