 Entering Gaussian System, Link 0=g16
 Initial command:
 /home/g16/g16/l1.exe "/home/xiong/AlLi/Gau-3469.inp" -scrdir="/home/xiong/AlLi/"
 Entering Link 1 = /home/g16/g16/l1.exe PID=      3470.
  
 Copyright (c) 1988-2019, Gaussian, Inc.  All Rights Reserved.
  
 This is part of the Gaussian(R) 16 program.  It is based on
 the Gaussian(R) 09 system (copyright 2009, Gaussian, Inc.),
 the Gaussian(R) 03 system (copyright 2003, Gaussian, Inc.),
 the Gaussian(R) 98 system (copyright 1998, Gaussian, Inc.),
 the Gaussian(R) 94 system (copyright 1995, Gaussian, Inc.),
 the Gaussian 92(TM) system (copyright 1992, Gaussian, Inc.),
 the Gaussian 90(TM) system (copyright 1990, Gaussian, Inc.),
 the Gaussian 88(TM) system (copyright 1988, Gaussian, Inc.),
 the Gaussian 86(TM) system (copyright 1986, Carnegie Mellon
 University), and the Gaussian 82(TM) system (copyright 1983,
 Carnegie Mellon University). Gaussian is a federally registered
 trademark of Gaussian, Inc.
  
 This software contains proprietary and confidential information,
 including trade secrets, belonging to Gaussian, Inc.
  
 This software is provided under written license and may be
 used, copied, transmitted, or stored only in accord with that
 written license.
  
 The following legend is applicable only to US Government
 contracts under FAR:
  
                    RESTRICTED RIGHTS LEGEND
  
 Use, reproduction and disclosure by the US Government is
 subject to restrictions as set forth in subparagraphs (a)
 and (c) of the Commercial Computer Software - Restricted
 Rights clause in FAR 52.227-19.
  
 Gaussian, Inc.
 340 Quinnipiac St., Bldg. 40, Wallingford CT 06492
  
  
 ---------------------------------------------------------------
 Warning -- This program may not be used in any manner that
 competes with the business of Gaussian, Inc. or will provide
 assistance to any competitor of Gaussian, Inc.  The licensee
 of this program is prohibited from giving any competitor of
 Gaussian, Inc. access to this program.  By using this program,
 the user acknowledges that Gaussian, Inc. is engaged in the
 business of creating and licensing software in the field of
 computational chemistry and represents and warrants to the
 licensee that it is not a competitor of Gaussian, Inc. and that
 it will not use this program in any manner prohibited above.
 ---------------------------------------------------------------
  

 Cite this work as:
 Gaussian 16, Revision C.01,
 M. J. Frisch, G. W. Trucks, H. B. Schlegel, G. E. Scuseria, 
 M. A. Robb, J. R. Cheeseman, G. Scalmani, V. Barone, 
 G. A. Petersson, H. Nakatsuji, X. Li, M. Caricato, A. V. Marenich, 
 J. Bloino, B. G. Janesko, R. Gomperts, B. Mennucci, H. P. Hratchian, 
 J. V. Ortiz, A. F. Izmaylov, J. L. Sonnenberg, D. Williams-Young, 
 F. Ding, F. Lipparini, F. Egidi, J. Goings, B. Peng, A. Petrone, 
 T. Henderson, D. Ranasinghe, V. G. Zakrzewski, J. Gao, N. Rega, 
 G. Zheng, W. Liang, M. Hada, M. Ehara, K. Toyota, R. Fukuda, 
 J. Hasegawa, M. Ishida, T. Nakajima, Y. Honda, O. Kitao, H. Nakai, 
 T. Vreven, K. Throssell, J. A. Montgomery, Jr., J. E. Peralta, 
 F. Ogliaro, M. J. Bearpark, J. J. Heyd, E. N. Brothers, K. N. Kudin, 
 V. N. Staroverov, T. A. Keith, R. Kobayashi, J. Normand, 
 K. Raghavachari, A. P. Rendell, J. C. Burant, S. S. Iyengar, 
 J. Tomasi, M. Cossi, J. M. Millam, M. Klene, C. Adamo, R. Cammi, 
 J. W. Ochterski, R. L. Martin, K. Morokuma, O. Farkas, 
 J. B. Foresman, and D. J. Fox, Gaussian, Inc., Wallingford CT, 2019.
 
 ******************************************
 Gaussian 16:  ES64L-G16RevC.01  3-Jul-2019
                 2-Jul-2025 
 ******************************************
 %chk=h2o-ts2-fopt.chk
 %mem=50GB
 %nprocshared=64
 Will use up to   64 processors via shared memory.
 ----------------------------
 # opt freq m062x/aug-cc-pvdz
 ----------------------------
 1/18=20,19=15,26=3,38=1/1,3;
 2/9=110,12=2,17=6,18=5,40=1/2;
 3/5=16,7=10,11=2,25=1,30=1,71=1,74=-55/1,2,3;
 4//1;
 5/5=2,38=5/2;
 6/7=2,8=2,9=2,10=2,28=1/1;
 7//1,2,3,16;
 1/18=20,19=15,26=3/3(2);
 2/9=110/2;
 99//99;
 2/9=110/2;
 3/5=16,7=10,11=2,25=1,30=1,71=1,74=-55/1,2,3;
 4/5=5,16=3,69=1/1;
 5/5=2,38=5/2;
 7//1,2,3,16;
 1/18=20,19=15,26=3/3(-5);
 2/9=110/2;
 6/7=2,8=2,9=2,10=2,19=2,28=1/1;
 99/9=1/99;
 -------------------
 Title Card Required
 -------------------
 Symbolic Z-matrix:
 Charge =  0 Multiplicity = 1
 Al                    0.62593  -0.49269   1.45863 
 O                    -1.09551  -0.47647   1.60077 
 O                     1.21361  -1.73809   0.40048 
 O                     1.4341    1.02484   1.30912 
 Al                    1.36648   1.58964  -0.33381 
 Al                    0.61812  -1.08658  -1.09814 
 Al                   -1.98095  -0.69648   0.12218 
 O                     1.39067   0.38099  -1.57418 
 O                    -1.093    -1.20751  -1.273 
 O                     0.91932   3.18952  -0.73027 
 O                    -3.62573  -0.2622   -0.02756 
 H                    -4.11222   0.0527    0.73708 
 H                     0.85116   3.85596  -0.04583 
 

 GradGradGradGradGradGradGradGradGradGradGradGradGradGradGradGradGradGrad
 Berny optimization.
 Initialization pass.
                           ----------------------------
                           !    Initial Parameters    !
                           ! (Angstroms and Degrees)  !
 --------------------------                            --------------------------
 ! Name  Definition              Value          Derivative Info.                !
 --------------------------------------------------------------------------------
 ! R1    R(1,2)                  1.7274         estimate D2E/DX2                !
 ! R2    R(1,3)                  1.7367         estimate D2E/DX2                !
 ! R3    R(1,4)                  1.7258         estimate D2E/DX2                !
 ! R4    R(1,5)                  2.8456         estimate D2E/DX2                !
 ! R5    R(1,6)                  2.6248         estimate D2E/DX2                !
 ! R6    R(1,7)                  2.9366         estimate D2E/DX2                !
 ! R7    R(2,7)                  1.7374         estimate D2E/DX2                !
 ! R8    R(3,6)                  1.7392         estimate D2E/DX2                !
 ! R9    R(4,5)                  1.7386         estimate D2E/DX2                !
 ! R10   R(5,6)                  2.8821         estimate D2E/DX2                !
 ! R11   R(5,8)                  1.732          estimate D2E/DX2                !
 ! R12   R(5,10)                 1.7078         estimate D2E/DX2                !
 ! R13   R(6,7)                  2.8977         estimate D2E/DX2                !
 ! R14   R(6,8)                  1.7255         estimate D2E/DX2                !
 ! R15   R(6,9)                  1.7243         estimate D2E/DX2                !
 ! R16   R(7,9)                  1.7309         estimate D2E/DX2                !
 ! R17   R(7,11)                 1.7077         estimate D2E/DX2                !
 ! R18   R(10,13)                0.9577         estimate D2E/DX2                !
 ! R19   R(11,12)                0.9594         estimate D2E/DX2                !
 ! A1    A(2,1,3)              113.2101         estimate D2E/DX2                !
 ! A2    A(2,1,4)              117.7461         estimate D2E/DX2                !
 ! A3    A(2,1,5)              107.7172         estimate D2E/DX2                !
 ! A4    A(2,1,6)               94.5491         estimate D2E/DX2                !
 ! A5    A(3,1,4)              114.7917         estimate D2E/DX2                !
 ! A6    A(3,1,5)               93.0328         estimate D2E/DX2                !
 ! A7    A(3,1,7)               88.4727         estimate D2E/DX2                !
 ! A8    A(4,1,6)               96.6591         estimate D2E/DX2                !
 ! A9    A(4,1,7)              115.9324         estimate D2E/DX2                !
 ! A10   A(5,1,7)               89.7217         estimate D2E/DX2                !
 ! A11   A(1,5,8)               86.7943         estimate D2E/DX2                !
 ! A12   A(1,5,10)             139.7822         estimate D2E/DX2                !
 ! A13   A(4,5,6)               87.6532         estimate D2E/DX2                !
 ! A14   A(4,5,8)              116.7108         estimate D2E/DX2                !
 ! A15   A(4,5,10)             122.2669         estimate D2E/DX2                !
 ! A16   A(6,5,10)             137.7582         estimate D2E/DX2                !
 ! A17   A(8,5,10)             119.4141         estimate D2E/DX2                !
 ! A18   A(1,6,8)               94.2992         estimate D2E/DX2                !
 ! A19   A(1,6,9)               96.7538         estimate D2E/DX2                !
 ! A20   A(3,6,5)               91.7431         estimate D2E/DX2                !
 ! A21   A(3,6,7)               89.694          estimate D2E/DX2                !
 ! A22   A(3,6,8)              113.7677         estimate D2E/DX2                !
 ! A23   A(3,6,9)              113.6335         estimate D2E/DX2                !
 ! A24   A(5,6,7)               89.7828         estimate D2E/DX2                !
 ! A25   A(5,6,9)              110.4692         estimate D2E/DX2                !
 ! A26   A(7,6,8)              113.7837         estimate D2E/DX2                !
 ! A27   A(8,6,9)              118.4244         estimate D2E/DX2                !
 ! A28   A(1,7,9)               86.0967         estimate D2E/DX2                !
 ! A29   A(1,7,11)             151.314          estimate D2E/DX2                !
 ! A30   A(2,7,6)               85.316          estimate D2E/DX2                !
 ! A31   A(2,7,9)              117.5103         estimate D2E/DX2                !
 ! A32   A(2,7,11)             122.2257         estimate D2E/DX2                !
 ! A33   A(6,7,11)             149.4516         estimate D2E/DX2                !
 ! A34   A(9,7,11)             119.8998         estimate D2E/DX2                !
 ! A35   A(5,10,13)            120.3049         estimate D2E/DX2                !
 ! A36   A(7,11,12)            120.1296         estimate D2E/DX2                !
 ! D1    D(2,1,5,8)            -95.8183         estimate D2E/DX2                !
 ! D2    D(2,1,5,10)            38.2537         estimate D2E/DX2                !
 ! D3    D(3,1,5,8)             19.7276         estimate D2E/DX2                !
 ! D4    D(3,1,5,10)           153.7996         estimate D2E/DX2                !
 ! D5    D(7,1,5,8)            -68.7282         estimate D2E/DX2                !
 ! D6    D(7,1,5,10)            65.3438         estimate D2E/DX2                !
 ! D7    D(2,1,6,8)            117.2387         estimate D2E/DX2                !
 ! D8    D(2,1,6,9)             -2.0742         estimate D2E/DX2                !
 ! D9    D(4,1,6,8)             -1.4131         estimate D2E/DX2                !
 ! D10   D(4,1,6,9)           -120.7261         estimate D2E/DX2                !
 ! D11   D(3,1,7,9)            -28.287          estimate D2E/DX2                !
 ! D12   D(3,1,7,11)           175.3357         estimate D2E/DX2                !
 ! D13   D(4,1,7,9)             88.6795         estimate D2E/DX2                !
 ! D14   D(4,1,7,11)           -67.6978         estimate D2E/DX2                !
 ! D15   D(5,1,7,9)             64.7544         estimate D2E/DX2                !
 ! D16   D(5,1,7,11)           -91.623          estimate D2E/DX2                !
 ! D17   D(4,5,6,3)            -18.3362         estimate D2E/DX2                !
 ! D18   D(4,5,6,7)             71.351          estimate D2E/DX2                !
 ! D19   D(4,5,6,9)             97.7333         estimate D2E/DX2                !
 ! D20   D(10,5,6,3)          -156.8979         estimate D2E/DX2                !
 ! D21   D(10,5,6,7)           -67.2106         estimate D2E/DX2                !
 ! D22   D(10,5,6,9)           -40.8284         estimate D2E/DX2                !
 ! D23   D(1,5,10,13)           51.7956         estimate D2E/DX2                !
 ! D24   D(4,5,10,13)           11.2973         estimate D2E/DX2                !
 ! D25   D(6,5,10,13)          139.8508         estimate D2E/DX2                !
 ! D26   D(8,5,10,13)          176.3591         estimate D2E/DX2                !
 ! D27   D(3,6,7,2)             30.2676         estimate D2E/DX2                !
 ! D28   D(3,6,7,11)          -173.6887         estimate D2E/DX2                !
 ! D29   D(5,6,7,2)            -61.4767         estimate D2E/DX2                !
 ! D30   D(5,6,7,11)            94.567          estimate D2E/DX2                !
 ! D31   D(8,6,7,2)            -85.7142         estimate D2E/DX2                !
 ! D32   D(8,6,7,11)            70.3295         estimate D2E/DX2                !
 ! D33   D(1,7,11,12)          -25.1807         estimate D2E/DX2                !
 ! D34   D(2,7,11,12)           -4.8214         estimate D2E/DX2                !
 ! D35   D(6,7,11,12)         -156.242          estimate D2E/DX2                !
 ! D36   D(9,7,11,12)         -177.7185         estimate D2E/DX2                !
 --------------------------------------------------------------------------------
 Trust Radius=3.00D-01 FncErr=1.00D-07 GrdErr=1.00D-06 EigMax=2.50D+02 EigMin=1.00D-04
 Number of steps in this run=    100 maximum allowed number of steps=    100.
 GradGradGradGradGradGradGradGradGradGradGradGradGradGradGradGradGradGrad

                          Input orientation:                          
 ---------------------------------------------------------------------
 Center     Atomic      Atomic             Coordinates (Angstroms)
 Number     Number       Type             X           Y           Z
 ---------------------------------------------------------------------
      1         13           0        0.625925   -0.492686    1.458625
      2          8           0       -1.095513   -0.476470    1.600769
      3          8           0        1.213612   -1.738085    0.400484
      4          8           0        1.434100    1.024844    1.309117
      5         13           0        1.366484    1.589643   -0.333810
      6         13           0        0.618115   -1.086577   -1.098142
      7         13           0       -1.980945   -0.696479    0.122175
      8          8           0        1.390670    0.380988   -1.574184
      9          8           0       -1.093003   -1.207514   -1.273004
     10          8           0        0.919316    3.189517   -0.730267
     11          8           0       -3.625733   -0.262196   -0.027559
     12          1           0       -4.112217    0.052702    0.737075
     13          1           0        0.851164    3.855963   -0.045829
 ---------------------------------------------------------------------
                    Distance matrix (angstroms):
                    1          2          3          4          5
     1  Al   0.000000
     2  O    1.727373   0.000000
     3  O    1.736680   2.892130   0.000000
     4  O    1.725803   2.956002   2.916849   0.000000
     5  Al   2.845583   3.751379   3.411207   1.738614   0.000000
     6  Al   2.624848   3.254669   1.739241   3.304365   2.882085
     7  Al   2.936563   1.737422   3.371586   4.004287   4.079161
     8  O    3.247472   4.122701   2.901919   2.954634   1.732039
     9  O    3.305675   2.965300   2.898714   4.247001   3.841256
    10  O    4.293710   4.788813   5.064234   3.018261   1.707845
    11  O    4.509819   3.016518   5.077473   5.389349   5.333416
    12  H    4.823699   3.182215   5.628913   5.659852   5.790090
    13  H    4.607045   5.027008   5.623516   3.192323   2.341942
                    6          7          8          9         10
     6  Al   0.000000
     7  Al   2.897665   0.000000
     8  O    1.725458   3.925093   0.000000
     9  O    1.724276   1.730931   2.963559   0.000000
    10  O    4.302445   4.923326   2.970220   4.865991   0.000000
    11  O    4.453762   1.707732   5.288670   2.976488   5.750269
    12  H    5.200194   2.341302   5.977579   3.839820   6.108111
    13  H    5.058693   5.364121   3.834369   5.560984   0.957732
                   11         12         13
    11  O    0.000000
    12  H    0.959423   0.000000
    13  H    6.082941   6.301816   0.000000
 Stoichiometry    Al4H2O7
 Framework group  C1[X(Al4H2O7)]
 Deg. of freedom    33
 Full point group                 C1      NOp   1
 Largest Abelian subgroup         C1      NOp   1
 Largest concise Abelian subgroup C1      NOp   1
                         Standard orientation:                         
 ---------------------------------------------------------------------
 Center     Atomic      Atomic             Coordinates (Angstroms)
 Number     Number       Type             X           Y           Z
 ---------------------------------------------------------------------
      1         13           0        0.126441   -0.931348    1.383718
      2          8           0       -1.322216    0.003657    1.488486
      3          8           0        0.051885   -2.175846    0.174701
      4          8           0        1.632154   -0.092074    1.466464
      5         13           0        2.033970    0.588519   -0.082121
      6         13           0        0.043750   -1.151144   -1.230603
      7         13           0       -2.042729    0.458552   -0.025636
      8          8           0        1.523740   -0.299561   -1.478881
      9          8           0       -1.439748   -0.302403   -1.458634
     10          8           0        2.554299    2.205399   -0.260140
     11          8           0       -3.175274    1.730699   -0.149464
     12          1           0       -3.486937    2.176644    0.640784
     13          1           0        2.789612    2.724851    0.509306
 ---------------------------------------------------------------------
 Rotational constants (GHZ):           0.9627941           0.5708200           0.5363852
 Standard basis: Aug-CC-pVDZ (5D, 7F)
 There are   309 symmetry adapted cartesian basis functions of A   symmetry.
 There are   287 symmetry adapted basis functions of A   symmetry.
   287 basis functions,   643 primitive gaussians,   309 cartesian basis functions
    55 alpha electrons       55 beta electrons
       nuclear repulsion energy      1023.5710607099 Hartrees.
 NAtoms=   13 NActive=   13 NUniq=   13 SFac= 1.00D+00 NAtFMM=   60 NAOKFM=F Big=F
 Integral buffers will be    131072 words long.
 Raffenetti 2 integral format.
 Two-electron integral symmetry is turned on.
 One-electron integrals computed using PRISM.
 NBasis=   287 RedAO= T EigKep=  1.13D-04  NBF=   287
 NBsUse=   287 1.00D-06 EigRej= -1.00D+00 NBFU=   287
 ExpMin= 1.53D-02 ExpMax= 6.42D+04 ExpMxC= 2.19D+03 IAcc=3 IRadAn=         5 AccDes= 0.00D+00
 Harris functional with IExCor= 1009 and IRadAn=       5 diagonalized for initial guess.
 HarFok:  IExCor= 1009 AccDes= 0.00D+00 IRadAn=         5 IDoV= 1 UseB2=F ITyADJ=14
 ICtDFT=  3500011 ScaDFX=  1.000000  1.000000  1.000000  1.000000
 FoFCou: FMM=F IPFlag=           0 FMFlag=      100000 FMFlg1=           0
         NFxFlg=           0 DoJE=T BraDBF=F KetDBF=T FulRan=T
         wScrn=  0.000000 ICntrl=       500 IOpCl=  0 I1Cent=   200000004 NGrid=           0
         NMat0=    1 NMatS0=      1 NMatT0=    0 NMatD0=    1 NMtDS0=    0 NMtDT0=    0
 Petite list used in FoFCou.
 Requested convergence on RMS density matrix=1.00D-08 within 128 cycles.
 Requested convergence on MAX density matrix=1.00D-06.
 Requested convergence on             energy=1.00D-06.
 No special actions if energy rises.
 SCF Done:  E(RM062X) =  -1497.93584118     A.U. after   13 cycles
            NFock= 13  Conv=0.26D-08     -V/T= 2.0042

 **********************************************************************

            Population analysis using the SCF Density.

 **********************************************************************

 Orbital symmetries:
       Occupied  (A) (A) (A) (A) (A) (A) (A) (A) (A) (A) (A) (A)
                 (A) (A) (A) (A) (A) (A) (A) (A) (A) (A) (A) (A)
                 (A) (A) (A) (A) (A) (A) (A) (A) (A) (A) (A) (A)
                 (A) (A) (A) (A) (A) (A) (A) (A) (A) (A) (A) (A)
                 (A) (A) (A) (A) (A) (A) (A)
       Virtual   (A) (A) (A) (A) (A) (A) (A) (A) (A) (A) (A) (A)
                 (A) (A) (A) (A) (A) (A) (A) (A) (A) (A) (A) (A)
                 (A) (A) (A) (A) (A) (A) (A) (A) (A) (A) (A) (A)
                 (A) (A) (A) (A) (A) (A) (A) (A) (A) (A) (A) (A)
                 (A) (A) (A) (A) (A) (A) (A) (A) (A) (A) (A) (A)
                 (A) (A) (A) (A) (A) (A) (A) (A) (A) (A) (A) (A)
                 (A) (A) (A) (A) (A) (A) (A) (A) (A) (A) (A) (A)
                 (A) (A) (A) (A) (A) (A) (A) (A) (A) (A) (A) (A)
                 (A) (A) (A) (A) (A) (A) (A) (A) (A) (A) (A) (A)
                 (A) (A) (A) (A) (A) (A) (A) (A) (A) (A) (A) (A)
                 (A) (A) (A) (A) (A) (A) (A) (A) (A) (A) (A) (A)
                 (A) (A) (A) (A) (A) (A) (A) (A) (A) (A) (A) (A)
                 (A) (A) (A) (A) (A) (A) (A) (A) (A) (A) (A) (A)
                 (A) (A) (A) (A) (A) (A) (A) (A) (A) (A) (A) (A)
                 (A) (A) (A) (A) (A) (A) (A) (A) (A) (A) (A) (A)
                 (A) (A) (A) (A) (A) (A) (A) (A) (A) (A) (A) (A)
                 (A) (A) (A) (A) (A) (A) (A) (A) (A) (A) (A) (A)
                 (A) (A) (A) (A) (A) (A) (A) (A) (A) (A) (A) (A)
                 (A) (A) (A) (A) (A) (A) (A) (A) (A) (A) (A) (A)
                 (A) (A) (A) (A)
 The electronic state is 1-A.
 Alpha  occ. eigenvalues --  -56.91259 -56.91180 -56.90409 -56.90179 -19.63814
 Alpha  occ. eigenvalues --  -19.63623 -19.63392 -19.63249 -19.63133 -19.63098
 Alpha  occ. eigenvalues --  -19.62242  -4.42212  -4.42120  -4.41327  -4.41090
 Alpha  occ. eigenvalues --   -2.92715  -2.92616  -2.92147  -2.92118  -2.92053
 Alpha  occ. eigenvalues --   -2.92025  -2.91764  -2.91510  -2.91355  -2.91308
 Alpha  occ. eigenvalues --   -2.91135  -2.91087  -1.10242  -1.10017  -1.07978
 Alpha  occ. eigenvalues --   -1.06047  -1.05925  -1.04788  -1.04463  -0.58492
 Alpha  occ. eigenvalues --   -0.58167  -0.53054  -0.52128  -0.50588  -0.49744
 Alpha  occ. eigenvalues --   -0.47037  -0.46359  -0.46158  -0.44353  -0.42775
 Alpha  occ. eigenvalues --   -0.42220  -0.41871  -0.41835  -0.40317  -0.39840
 Alpha  occ. eigenvalues --   -0.39640  -0.39584  -0.39251  -0.38186  -0.36855
 Alpha virt. eigenvalues --   -0.07800  -0.04075  -0.01953  -0.01460   0.00468
 Alpha virt. eigenvalues --    0.00795   0.01119   0.01378   0.01626   0.02085
 Alpha virt. eigenvalues --    0.02180   0.02462   0.02909   0.03589   0.03713
 Alpha virt. eigenvalues --    0.03939   0.04127   0.06025   0.06123   0.06877
 Alpha virt. eigenvalues --    0.07305   0.08517   0.08821   0.10050   0.10496
 Alpha virt. eigenvalues --    0.10792   0.10963   0.11092   0.11452   0.11519
 Alpha virt. eigenvalues --    0.12585   0.12873   0.13502   0.13836   0.14206
 Alpha virt. eigenvalues --    0.14741   0.15323   0.15492   0.15665   0.16685
 Alpha virt. eigenvalues --    0.17158   0.17783   0.18041   0.18644   0.19375
 Alpha virt. eigenvalues --    0.19927   0.20389   0.21575   0.21871   0.22677
 Alpha virt. eigenvalues --    0.23345   0.23657   0.24379   0.24615   0.24778
 Alpha virt. eigenvalues --    0.25444   0.25713   0.26290   0.26819   0.27136
 Alpha virt. eigenvalues --    0.27658   0.27793   0.28050   0.28746   0.30326
 Alpha virt. eigenvalues --    0.30730   0.31110   0.31877   0.32058   0.32545
 Alpha virt. eigenvalues --    0.33851   0.34452   0.35070   0.35526   0.35887
 Alpha virt. eigenvalues --    0.36728   0.37436   0.37566   0.38285   0.39020
 Alpha virt. eigenvalues --    0.39798   0.40821   0.40922   0.41876   0.42348
 Alpha virt. eigenvalues --    0.43042   0.43676   0.45194   0.45447   0.45820
 Alpha virt. eigenvalues --    0.46690   0.46754   0.47528   0.48569   0.49306
 Alpha virt. eigenvalues --    0.50556   0.50986   0.51396   0.52291   0.53124
 Alpha virt. eigenvalues --    0.54182   0.54700   0.54954   0.55549   0.56422
 Alpha virt. eigenvalues --    0.56581   0.57736   0.59401   0.60946   0.62056
 Alpha virt. eigenvalues --    0.62737   0.63509   0.64212   0.64596   0.71493
 Alpha virt. eigenvalues --    0.76634   0.77540   0.77990   0.79926   0.81047
 Alpha virt. eigenvalues --    0.83286   0.84396   0.85111   0.87066   0.89010
 Alpha virt. eigenvalues --    0.89931   0.93334   0.94472   0.94817   0.97006
 Alpha virt. eigenvalues --    0.97582   0.98944   1.01850   1.02396   1.02574
 Alpha virt. eigenvalues --    1.04785   1.05199   1.05975   1.07068   1.08034
 Alpha virt. eigenvalues --    1.08863   1.10357   1.10969   1.11691   1.12785
 Alpha virt. eigenvalues --    1.13440   1.15345   1.17624   1.18281   1.20027
 Alpha virt. eigenvalues --    1.20442   1.21573   1.24773   1.27546   1.29472
 Alpha virt. eigenvalues --    1.32850   1.34039   1.35601   1.36348   1.37526
 Alpha virt. eigenvalues --    1.39352   1.43770   1.47056   1.49965   1.51777
 Alpha virt. eigenvalues --    1.53983   1.56299   1.57316   1.61245   1.61534
 Alpha virt. eigenvalues --    1.62789   1.65670   1.67104   1.68342   1.69407
 Alpha virt. eigenvalues --    1.78608   1.85768   1.86454   1.89783   1.93121
 Alpha virt. eigenvalues --    1.95164   1.99002   2.03735   2.11627   2.13092
 Alpha virt. eigenvalues --    2.15000   2.18090   2.23463   2.40695   2.42732
 Alpha virt. eigenvalues --    2.44977   2.46668   2.50569   2.52652   2.57179
 Alpha virt. eigenvalues --    2.75139   2.75876   3.36319   3.37345   3.38979
 Alpha virt. eigenvalues --    3.39263   3.39982   3.40468   3.40725   3.41861
 Alpha virt. eigenvalues --    3.42879   3.42990   3.43611   3.44408   3.45173
 Alpha virt. eigenvalues --    3.46355   3.46793   3.47394   3.48053   3.48285
 Alpha virt. eigenvalues --    3.49505   3.50108   3.50400   3.52780   3.53979
 Alpha virt. eigenvalues --    3.54684   3.54814   3.56175   3.56856   3.57796
 Alpha virt. eigenvalues --    3.59591   3.61329   3.62248   3.65697   3.69137
 Alpha virt. eigenvalues --    3.93569   3.94156
          Condensed to atoms (all electrons):
               1          2          3          4          5          6
     1  Al  11.782841  -0.088010   0.010066  -0.038492  -0.161578  -0.318250
     2  O   -0.088010   8.700267   0.055137   0.034096   0.064695   0.053710
     3  O    0.010066   0.055137   8.850909   0.056435   0.091939   0.011288
     4  O   -0.038492   0.034096   0.056435   8.659105   0.179724   0.069016
     5  Al  -0.161578   0.064695   0.091939   0.179724  11.261052  -0.224761
     6  Al  -0.318250   0.053710   0.011288   0.069016  -0.224761  11.791989
     7  Al  -0.101640   0.092355   0.066893   0.024298   0.005178  -0.120114
     8  O    0.070804  -0.008827   0.056797   0.032036   0.205435  -0.019520
     9  O    0.056552   0.045911   0.056751  -0.005211   0.063319  -0.085965
    10  O    0.004909  -0.004561   0.003661   0.054731  -0.044593   0.033516
    11  O   -0.005687   0.074437   0.004492   0.000065   0.002726   0.026413
    12  H    0.010272  -0.014502   0.000835  -0.000089   0.000814   0.003191
    13  H    0.008621  -0.000205   0.000629  -0.012505   0.062838   0.003559
               7          8          9         10         11         12
     1  Al  -0.101640   0.070804   0.056552   0.004909  -0.005687   0.010272
     2  O    0.092355  -0.008827   0.045911  -0.004561   0.074437  -0.014502
     3  O    0.066893   0.056797   0.056751   0.003661   0.004492   0.000835
     4  O    0.024298   0.032036  -0.005211   0.054731   0.000065  -0.000089
     5  Al   0.005178   0.205435   0.063319  -0.044593   0.002726   0.000814
     6  Al  -0.120114  -0.019520  -0.085965   0.033516   0.026413   0.003191
     7  Al  11.343727   0.030558   0.155103   0.006748  -0.079925   0.051235
     8  O    0.030558   8.613549   0.040192   0.043558  -0.000803  -0.000235
     9  O    0.155103   0.040192   8.639157  -0.005476   0.067777   0.004284
    10  O    0.006748   0.043558  -0.005476   8.244779   0.000733   0.000722
    11  O   -0.079925  -0.000803   0.067777   0.000733   8.273036   0.303660
    12  H    0.051235  -0.000235   0.004284   0.000722   0.303660   0.559697
    13  H   -0.000258   0.002065  -0.000506   0.300533   0.000413   0.000237
              13
     1  Al   0.008621
     2  O   -0.000205
     3  O    0.000629
     4  O   -0.012505
     5  Al   0.062838
     6  Al   0.003559
     7  Al  -0.000258
     8  O    0.002065
     9  O   -0.000506
    10  O    0.300533
    11  O    0.000413
    12  H    0.000237
    13  H    0.551399
 Mulliken charges:
               1
     1  Al   1.769593
     2  O   -1.004503
     3  O   -1.265832
     4  O   -1.053209
     5  Al   1.493212
     6  Al   1.775927
     7  Al   1.525845
     8  O   -1.065610
     9  O   -1.031888
    10  O   -0.639260
    11  O   -0.667337
    12  H    0.079880
    13  H    0.083180
 Sum of Mulliken charges =   0.00000
 Mulliken charges with hydrogens summed into heavy atoms:
               1
     1  Al   1.769593
     2  O   -1.004503
     3  O   -1.265832
     4  O   -1.053209
     5  Al   1.493212
     6  Al   1.775927
     7  Al   1.525845
     8  O   -1.065610
     9  O   -1.031888
    10  O   -0.556079
    11  O   -0.587457
 Electronic spatial extent (au):  <R**2>=           2313.3591
 Charge=              0.0000 electrons
 Dipole moment (field-independent basis, Debye):
    X=              0.4041    Y=             -1.6514    Z=              2.4940  Tot=              3.0183
 Quadrupole moment (field-independent basis, Debye-Ang):
   XX=            -81.8113   YY=            -80.9080   ZZ=            -79.1422
   XY=              1.0254   XZ=             -1.7020   YZ=              7.3374
 Traceless Quadrupole moment (field-independent basis, Debye-Ang):
   XX=             -1.1908   YY=             -0.2875   ZZ=              1.4783
   XY=              1.0254   XZ=             -1.7020   YZ=              7.3374
 Octapole moment (field-independent basis, Debye-Ang**2):
  XXX=             11.3488  YYY=             18.2680  ZZZ=              7.6727  XYY=             -1.5412
  XXY=              3.3080  XXZ=             28.5804  XZZ=             -2.0576  YZZ=            -26.9474
  YYZ=             12.9456  XYZ=             -0.0498
 Hexadecapole moment (field-independent basis, Debye-Ang**3):
 XXXX=          -1449.8965 YYYY=           -741.6080 ZZZZ=           -552.5145 XXXY=              9.9124
 XXXZ=            -43.8657 YYYX=              3.5605 YYYZ=             67.4930 ZZZX=             -0.1529
 ZZZY=             -3.8676 XXYY=           -358.5047 XXZZ=           -396.3611 YYZZ=           -165.2617
 XXYZ=             70.7640 YYXZ=              6.4669 ZZXY=             -4.7792
 N-N= 1.023571060710D+03 E-N=-5.611908288114D+03  KE= 1.491655270856D+03
 Calling FoFJK, ICntrl=      2127 FMM=F ISym2X=0 I1Cent= 0 IOpClX= 0 NMat=1 NMatS=1 NMatT=0.
 ***** Axes restored to original set *****
 -------------------------------------------------------------------
 Center     Atomic                   Forces (Hartrees/Bohr)
 Number     Number              X              Y              Z
 -------------------------------------------------------------------
      1       13          -0.000851038    0.000539691   -0.000223051
      2        8          -0.000352184   -0.000531448    0.000205355
      3        8          -0.000083560    0.000573838   -0.000111382
      4        8          -0.000827366    0.000577849   -0.000202723
      5       13           0.000855911    0.000351372   -0.000103686
      6       13          -0.000746762    0.000642143   -0.000151165
      7       13          -0.000846744   -0.001804921    0.000428677
      8        8          -0.000737747    0.000738938   -0.000005323
      9        8          -0.000313677   -0.000355781    0.000103496
     10        8           0.004710846    0.000262041   -0.001848362
     11        8          -0.000821596   -0.002209513    0.000550059
     12        1           0.000067453   -0.000034090   -0.000041236
     13        1          -0.000053537    0.001249882    0.001399340
 -------------------------------------------------------------------
 Cartesian Forces:  Max     0.004710846 RMS     0.001078147

 GradGradGradGradGradGradGradGradGradGradGradGradGradGradGradGradGradGrad
 Berny optimization.
 FormGI is forming the generalized inverse of G from B-inverse, IUseBI=4.
 Internal  Forces:  Max     0.002872886 RMS     0.001313302
 Search for a local minimum.
 Step number   1 out of a maximum of  100
 All quantities printed in internal units (Hartrees-Bohrs-Radians)
 Mixed Optimization -- RFO/linear search
 Second derivative matrix not updated -- first step.
 ITU=  0
     Eigenvalues ---    0.01432   0.03264   0.03937   0.04072   0.04633
     Eigenvalues ---    0.04634   0.04686   0.05456   0.08896   0.09061
     Eigenvalues ---    0.09714   0.11264   0.12175   0.13705   0.14119
     Eigenvalues ---    0.16000   0.16000   0.16900   0.16940   0.26986
     Eigenvalues ---    0.27455   0.28138   0.28264   0.28539   0.29103
     Eigenvalues ---    0.31240   0.31489   0.31610   0.31980   0.34962
     Eigenvalues ---    0.34976   0.55598   0.55964
 RFO step:  Lambda=-2.80324354D-03 EMin= 1.43249131D-02
 Linear search not attempted -- first point.
 Iteration  1 RMS(Cart)=  0.06865257 RMS(Int)=  0.00130556
 Iteration  2 RMS(Cart)=  0.00167099 RMS(Int)=  0.00053860
 Iteration  3 RMS(Cart)=  0.00000082 RMS(Int)=  0.00053860
 Variable       Old X    -DE/DX   Delta X   Delta X   Delta X     New X
                                 (Linear)    (Quad)   (Total)
    R1        3.26426   0.00090   0.00000   0.00091   0.00144   3.26570
    R2        3.28185  -0.00171   0.00000   0.00186   0.00198   3.28383
    R3        3.26130   0.00092   0.00000  -0.00086   0.00040   3.26170
    R4        5.37737   0.00238   0.00000   0.04391   0.04282   5.42019
    R5        4.96024  -0.00224   0.00000   0.00838   0.00789   4.96813
    R6        5.54930   0.00069   0.00000   0.01359   0.01310   5.56240
    R7        3.28325   0.00081   0.00000  -0.00211  -0.00170   3.28155
    R8        3.28669  -0.00167   0.00000   0.00194   0.00205   3.28874
    R9        3.28550  -0.00030   0.00000  -0.00341  -0.00270   3.28281
   R10        5.44635   0.00224   0.00000   0.04153   0.04045   5.48680
   R11        3.27308  -0.00034   0.00000  -0.00352  -0.00280   3.27028
   R12        3.22736   0.00030   0.00000   0.00085   0.00085   3.22821
   R13        5.47579   0.00078   0.00000   0.01679   0.01628   5.49207
   R14        3.26064   0.00098   0.00000  -0.00050   0.00074   3.26138
   R15        3.25841   0.00087   0.00000   0.00060   0.00115   3.25956
   R16        3.27099   0.00068   0.00000  -0.00232  -0.00190   3.26909
   R17        3.22715   0.00011   0.00000   0.00032   0.00032   3.22746
   R18        1.80985   0.00188   0.00000   0.00333   0.00333   1.81319
   R19        1.81305  -0.00008   0.00000  -0.00014  -0.00014   1.81290
    A1        1.97589  -0.00039   0.00000   0.00119   0.00106   1.97695
    A2        2.05506   0.00092   0.00000  -0.00807  -0.00810   2.04696
    A3        1.88002   0.00262   0.00000   0.02387   0.02380   1.90382
    A4        1.65019   0.00056   0.00000  -0.00155  -0.00162   1.64857
    A5        2.00349   0.00033   0.00000   0.00210   0.00204   2.00553
    A6        1.62373  -0.00024   0.00000  -0.01257  -0.01260   1.61113
    A7        1.54414  -0.00074   0.00000  -0.00855  -0.00850   1.53564
    A8        1.68702   0.00025   0.00000   0.00027  -0.00010   1.68692
    A9        2.02340   0.00164   0.00000   0.01264   0.01223   2.03563
   A10        1.56594   0.00287   0.00000   0.04021   0.03980   1.60574
   A11        1.51485  -0.00087   0.00000  -0.00989  -0.00989   1.50496
   A12        2.43966   0.00151   0.00000   0.03579   0.03438   2.47404
   A13        1.52984  -0.00086   0.00000  -0.00920  -0.00919   1.52065
   A14        2.03699   0.00008   0.00000   0.00894   0.00677   2.04375
   A15        2.13396  -0.00017   0.00000  -0.00702  -0.00629   2.12767
   A16        2.40433   0.00141   0.00000   0.03323   0.03169   2.43602
   A17        2.08417  -0.00022   0.00000  -0.00728  -0.00667   2.07750
   A18        1.64583   0.00026   0.00000   0.00012  -0.00022   1.64561
   A19        1.68867   0.00052   0.00000  -0.00222  -0.00232   1.68635
   A20        1.60122  -0.00021   0.00000  -0.01164  -0.01168   1.58954
   A21        1.56546  -0.00077   0.00000  -0.00964  -0.00958   1.55588
   A22        1.98562   0.00031   0.00000   0.00157   0.00151   1.98713
   A23        1.98328  -0.00039   0.00000   0.00143   0.00128   1.98456
   A24        1.56701   0.00287   0.00000   0.04001   0.03960   1.60661
   A25        1.92805   0.00249   0.00000   0.02237   0.02228   1.95033
   A26        1.98590   0.00169   0.00000   0.01304   0.01265   1.99855
   A27        2.06690   0.00087   0.00000  -0.00848  -0.00850   2.05839
   A28        1.50267  -0.00033   0.00000  -0.00300  -0.00304   1.49963
   A29        2.64093   0.00033   0.00000   0.00819   0.00782   2.64875
   A30        1.48905  -0.00031   0.00000  -0.00331  -0.00333   1.48572
   A31        2.05094   0.00010   0.00000   0.00001  -0.00097   2.04998
   A32        2.13324  -0.00010   0.00000  -0.00129  -0.00103   2.13222
   A33        2.60842   0.00030   0.00000   0.00799   0.00761   2.61604
   A34        2.09265  -0.00014   0.00000  -0.00189  -0.00160   2.09105
   A35        2.09972  -0.00018   0.00000  -0.00111  -0.00111   2.09860
   A36        2.09666  -0.00006   0.00000  -0.00038  -0.00038   2.09627
    D1       -1.67234   0.00199   0.00000   0.04813   0.04823  -1.62411
    D2        0.66765   0.00181   0.00000   0.05688   0.05722   0.72487
    D3        0.34431   0.00204   0.00000   0.04968   0.04947   0.39378
    D4        2.68431   0.00185   0.00000   0.05843   0.05845   2.74276
    D5       -1.19953   0.00262   0.00000   0.05602   0.05631  -1.14322
    D6        1.14046   0.00244   0.00000   0.06478   0.06529   1.20576
    D7        2.04620   0.00111   0.00000  -0.00795  -0.00801   2.03819
    D8       -0.03620   0.00010   0.00000   0.00100   0.00103  -0.03517
    D9       -0.02466   0.00003   0.00000   0.00050   0.00053  -0.02413
   D10       -2.10707  -0.00098   0.00000   0.00945   0.00958  -2.09749
   D11       -0.49370  -0.00152   0.00000  -0.03010  -0.03003  -0.52373
   D12        3.06018  -0.00078   0.00000  -0.04121  -0.04109   3.01909
   D13        1.54775  -0.00118   0.00000  -0.02953  -0.02964   1.51811
   D14       -1.18155  -0.00044   0.00000  -0.04064  -0.04070  -1.22225
   D15        1.13018  -0.00183   0.00000  -0.04371  -0.04396   1.08621
   D16       -1.59912  -0.00109   0.00000  -0.05482  -0.05503  -1.65415
   D17       -0.32003  -0.00205   0.00000  -0.05002  -0.04982  -0.36985
   D18        1.24531  -0.00273   0.00000  -0.05840  -0.05863   1.18668
   D19        1.70577  -0.00202   0.00000  -0.04863  -0.04876   1.65701
   D20       -2.73838  -0.00201   0.00000  -0.06118  -0.06121  -2.79960
   D21       -1.17305  -0.00269   0.00000  -0.06956  -0.07002  -1.24306
   D22       -0.71259  -0.00198   0.00000  -0.05980  -0.06015  -0.77274
   D23        0.90400  -0.00071   0.00000  -0.03089  -0.03171   0.87229
   D24        0.19718   0.00069   0.00000   0.01129   0.01258   0.20975
   D25        2.44086   0.00082   0.00000   0.03319   0.03395   2.47481
   D26        3.07805  -0.00072   0.00000  -0.01183  -0.01306   3.06499
   D27        0.52827   0.00140   0.00000   0.02908   0.02898   0.55725
   D28       -3.03144   0.00082   0.00000   0.03938   0.03925  -2.99219
   D29       -1.07297   0.00163   0.00000   0.04089   0.04120  -1.03177
   D30        1.65050   0.00104   0.00000   0.05120   0.05146   1.70197
   D31       -1.49599   0.00108   0.00000   0.02931   0.02941  -1.46659
   D32        1.22748   0.00049   0.00000   0.03962   0.03968   1.26716
   D33       -0.43949  -0.00011   0.00000   0.02909   0.02900  -0.41049
   D34       -0.08415  -0.00065   0.00000  -0.01563  -0.01570  -0.09985
   D35       -2.72694   0.00003   0.00000  -0.02885  -0.02877  -2.75570
   D36       -3.10177   0.00072   0.00000   0.01522   0.01530  -3.08648
         Item               Value     Threshold  Converged?
 Maximum Force            0.002873     0.000450     NO 
 RMS     Force            0.001313     0.000300     NO 
 Maximum Displacement     0.343078     0.001800     NO 
 RMS     Displacement     0.068508     0.001200     NO 
 Predicted change in Energy=-1.552490D-03
 GradGradGradGradGradGradGradGradGradGradGradGradGradGradGradGradGradGrad

                          Input orientation:                          
 ---------------------------------------------------------------------
 Center     Atomic      Atomic             Coordinates (Angstroms)
 Number     Number       Type             X           Y           Z
 ---------------------------------------------------------------------
      1         13           0        0.595506   -0.468632    1.458830
      2          8           0       -1.127237   -0.460163    1.594965
      3          8           0        1.194466   -1.709985    0.400536
      4          8           0        1.384677    1.058914    1.307359
      5         13           0        1.404316    1.615487   -0.338139
      6         13           0        0.595173   -1.066510   -1.101306
      7         13           0       -2.017010   -0.741587    0.130516
      8          8           0        1.350260    0.410132   -1.578713
      9          8           0       -1.116232   -1.192328   -1.275925
     10          8           0        1.069517    3.240305   -0.745759
     11          8           0       -3.680379   -0.379232   -0.006677
     12          1           0       -4.173794   -0.085096    0.761681
     13          1           0        1.032713    3.912345   -0.061917
 ---------------------------------------------------------------------
                    Distance matrix (angstroms):
                    1          2          3          4          5
     1  Al   0.000000
     2  O    1.728134   0.000000
     3  O    1.737728   2.894654   0.000000
     4  O    1.726016   2.949580   2.919814   0.000000
     5  Al   2.868244   3.801838   3.412981   1.737188   0.000000
     6  Al   2.629021   3.256413   1.740327   3.307931   2.903488
     7  Al   2.943494   1.736521   3.365157   4.024703   4.181018
     8  O    3.250930   4.119179   2.904582   2.958296   1.730557
     9  O    3.306458   2.962802   2.901347   4.242169   3.887986
    10  O    4.340635   4.898793   5.082811   3.012156   1.708297
    11  O    4.520939   3.015019   5.069600   5.426762   5.472010
    12  H    4.835218   3.180652   5.620401   5.701151   5.934383
    13  H    4.657980   5.150676   5.643635   3.184471   2.343063
                    6          7          8          9         10
     6  Al   0.000000
     7  Al   2.906280   0.000000
     8  O    1.725847   3.947966   0.000000
     9  O    1.724885   1.729927   2.956881   0.000000
    10  O    4.347421   5.113704   2.963529   4.970594   0.000000
    11  O    4.466644   1.707899   5.329327   2.974386   6.017375
    12  H    5.213151   2.341168   6.019790   3.837511   6.389286
    13  H    5.104974   5.567488   3.829752   5.670050   0.959496
                   11         12         13
    11  O    0.000000
    12  H    0.959347   0.000000
    13  H    6.374474   6.615554   0.000000
 Stoichiometry    Al4H2O7
 Framework group  C1[X(Al4H2O7)]
 Deg. of freedom    33
 Full point group                 C1      NOp   1
 Largest Abelian subgroup         C1      NOp   1
 Largest concise Abelian subgroup C1      NOp   1
                         Standard orientation:                         
 ---------------------------------------------------------------------
 Center     Atomic      Atomic             Coordinates (Angstroms)
 Number     Number       Type             X           Y           Z
 ---------------------------------------------------------------------
      1         13           0        0.096587   -0.887664    1.399658
      2          8           0       -1.337579    0.073162    1.479849
      3          8           0        0.011129   -2.150676    0.209198
      4          8           0        1.609021   -0.059263    1.473336
      5         13           0        2.096572    0.535045   -0.084519
      6         13           0        0.020363   -1.150617   -1.215069
      7         13           0       -2.083690    0.471443   -0.036790
      8          8           0        1.508866   -0.315851   -1.472109
      9          8           0       -1.447758   -0.278891   -1.459898
     10          8           0        2.758332    2.096695   -0.288485
     11          8           0       -3.245920    1.714720   -0.179625
     12          1           0       -3.567946    2.164791    0.604009
     13          1           0        3.031398    2.609347    0.475227
 ---------------------------------------------------------------------
 Rotational constants (GHZ):           0.9889840           0.5477145           0.5237739
 Standard basis: Aug-CC-pVDZ (5D, 7F)
 There are   309 symmetry adapted cartesian basis functions of A   symmetry.
 There are   287 symmetry adapted basis functions of A   symmetry.
   287 basis functions,   643 primitive gaussians,   309 cartesian basis functions
    55 alpha electrons       55 beta electrons
       nuclear repulsion energy      1019.9665452858 Hartrees.
 NAtoms=   13 NActive=   13 NUniq=   13 SFac= 1.00D+00 NAtFMM=   60 NAOKFM=F Big=F
 Integral buffers will be    131072 words long.
 Raffenetti 2 integral format.
 Two-electron integral symmetry is turned on.
 One-electron integrals computed using PRISM.
 NBasis=   287 RedAO= T EigKep=  1.13D-04  NBF=   287
 NBsUse=   287 1.00D-06 EigRej= -1.00D+00 NBFU=   287
 Initial guess from the checkpoint file:  "h2o-ts2-fopt.chk"
 B after Tr=     0.000000   -0.000000    0.000000
         Rot=    0.999917    0.008382    0.001652    0.009622 Ang=   1.47 deg.
 ExpMin= 1.53D-02 ExpMax= 6.42D+04 ExpMxC= 2.19D+03 IAcc=3 IRadAn=         5 AccDes= 0.00D+00
 Harris functional with IExCor= 1009 and IRadAn=       5 diagonalized for initial guess.
 HarFok:  IExCor= 1009 AccDes= 0.00D+00 IRadAn=         5 IDoV= 1 UseB2=F ITyADJ=14
 ICtDFT=  3500011 ScaDFX=  1.000000  1.000000  1.000000  1.000000
 FoFCou: FMM=F IPFlag=           0 FMFlag=      100000 FMFlg1=           0
         NFxFlg=           0 DoJE=T BraDBF=F KetDBF=T FulRan=T
         wScrn=  0.000000 ICntrl=       500 IOpCl=  0 I1Cent=   200000004 NGrid=           0
         NMat0=    1 NMatS0=      1 NMatT0=    0 NMatD0=    1 NMtDS0=    0 NMtDT0=    0
 Petite list used in FoFCou.
 Requested convergence on RMS density matrix=1.00D-08 within 128 cycles.
 Requested convergence on MAX density matrix=1.00D-06.
 Requested convergence on             energy=1.00D-06.
 No special actions if energy rises.
 SCF Done:  E(RM062X) =  -1497.93826029     A.U. after   11 cycles
            NFock= 11  Conv=0.41D-08     -V/T= 2.0042
 Calling FoFJK, ICntrl=      2127 FMM=F ISym2X=0 I1Cent= 0 IOpClX= 0 NMat=1 NMatS=1 NMatT=0.
 ***** Axes restored to original set *****
 -------------------------------------------------------------------
 Center     Atomic                   Forces (Hartrees/Bohr)
 Number     Number              X              Y              Z
 -------------------------------------------------------------------
      1       13          -0.002397431    0.002342250   -0.002344287
      2        8           0.000089422   -0.002271605    0.001407702
      3        8          -0.000064770    0.000653093   -0.000148409
      4        8           0.001383075   -0.000308195    0.000656697
      5       13          -0.003236257   -0.000084594    0.000123205
      6       13          -0.002128485    0.003151431    0.001006439
      7       13           0.000298426    0.000821929   -0.000122983
      8        8           0.001351841   -0.000550299   -0.000491232
      9        8           0.000137951   -0.002376157   -0.000253348
     10        8           0.005236846    0.001425932   -0.000487670
     11        8          -0.000811072   -0.002651871    0.000585812
     12        1           0.000027259   -0.000030938    0.000014367
     13        1           0.000113194   -0.000120975    0.000053708
 -------------------------------------------------------------------
 Cartesian Forces:  Max     0.005236846 RMS     0.001596340

 GradGradGradGradGradGradGradGradGradGradGradGradGradGradGradGradGradGrad
 Berny optimization.
 Using GEDIIS/GDIIS optimizer.
 FormGI is forming the generalized inverse of G from B-inverse, IUseBI=4.
 Internal  Forces:  Max     0.003120615 RMS     0.001218997
 Search for a local minimum.
 Step number   2 out of a maximum of  100
 All quantities printed in internal units (Hartrees-Bohrs-Radians)
 Mixed Optimization -- RFO/linear search
 Update second derivatives using D2CorX and points    1    2
 DE= -2.42D-03 DEPred=-1.55D-03 R= 1.56D+00
 TightC=F SS=  1.41D+00  RLast= 2.74D-01 DXNew= 5.0454D-01 8.2325D-01
 Trust test= 1.56D+00 RLast= 2.74D-01 DXMaxT set to 5.05D-01
 ITU=  1  0
 Use linear search instead of GDIIS.
     Eigenvalues ---    0.00581   0.01710   0.03953   0.04253   0.04633
     Eigenvalues ---    0.04634   0.05416   0.05662   0.08886   0.08927
     Eigenvalues ---    0.09904   0.11235   0.12182   0.13367   0.14576
     Eigenvalues ---    0.16000   0.16001   0.16620   0.17252   0.26995
     Eigenvalues ---    0.27366   0.27699   0.28130   0.28353   0.29022
     Eigenvalues ---    0.31324   0.31576   0.31747   0.32025   0.34960
     Eigenvalues ---    0.34975   0.55598   0.56359
 RFO step:  Lambda=-2.89941030D-03 EMin= 5.81066130D-03
 Quartic linear search produced a step of  2.00000.
 Iteration  1 RMS(Cart)=  0.18330742 RMS(Int)=  0.01078344
 Iteration  2 RMS(Cart)=  0.01392561 RMS(Int)=  0.00517598
 Iteration  3 RMS(Cart)=  0.00017400 RMS(Int)=  0.00517477
 Iteration  4 RMS(Cart)=  0.00000127 RMS(Int)=  0.00517477
 Iteration  5 RMS(Cart)=  0.00000001 RMS(Int)=  0.00517477
 Variable       Old X    -DE/DX   Delta X   Delta X   Delta X     New X
                                 (Linear)    (Quad)   (Total)
    R1        3.26570   0.00054   0.00288   0.00016   0.00563   3.27133
    R2        3.28383  -0.00140   0.00396  -0.00279   0.00257   3.28640
    R3        3.26170   0.00091   0.00081   0.00372   0.01503   3.27673
    R4        5.42019   0.00116   0.08564   0.00640   0.08395   5.50415
    R5        4.96813  -0.00264   0.01577  -0.02523  -0.01505   4.95308
    R6        5.56240  -0.00010   0.02620  -0.01439   0.00958   5.57198
    R7        3.28155   0.00131  -0.00341   0.00461   0.00262   3.28417
    R8        3.28874  -0.00138   0.00411  -0.00276   0.00257   3.29131
    R9        3.28281   0.00050  -0.00539   0.00429   0.00458   3.28739
   R10        5.48680   0.00106   0.08089   0.00309   0.07632   5.56312
   R11        3.27028   0.00052  -0.00560   0.00430   0.00432   3.27460
   R12        3.22821   0.00029   0.00171   0.00161   0.00332   3.23154
   R13        5.49207  -0.00001   0.03256  -0.01100   0.01928   5.51136
   R14        3.26138   0.00085   0.00147   0.00290   0.01408   3.27545
   R15        3.25956   0.00058   0.00230   0.00067   0.00587   3.26543
   R16        3.26909   0.00128  -0.00379   0.00488   0.00270   3.27179
   R17        3.22746   0.00015   0.00063   0.00089   0.00152   3.22898
   R18        1.81319  -0.00005   0.00667  -0.00284   0.00383   1.81701
   R19        1.81290  -0.00001  -0.00029   0.00006  -0.00023   1.81267
    A1        1.97695  -0.00047   0.00213  -0.00533  -0.00356   1.97339
    A2        2.04696   0.00231  -0.01620   0.03391   0.01880   2.06576
    A3        1.90382   0.00312   0.04760   0.04694   0.09380   1.99762
    A4        1.64857   0.00082  -0.00324   0.00721   0.00408   1.65265
    A5        2.00553  -0.00000   0.00408  -0.00343  -0.00029   2.00524
    A6        1.61113  -0.00010  -0.02520  -0.00674  -0.03191   1.57921
    A7        1.53564  -0.00051  -0.01700   0.00001  -0.01603   1.51961
    A8        1.68692   0.00045  -0.00019   0.00574   0.00307   1.68999
    A9        2.03563   0.00229   0.02446   0.02532   0.04784   2.08347
   A10        1.60574   0.00247   0.07961   0.03085   0.10643   1.71217
   A11        1.50496  -0.00059  -0.01977  -0.00318  -0.02310   1.48186
   A12        2.47404   0.00134   0.06876   0.05618   0.10468   2.57871
   A13        1.52065  -0.00059  -0.01837  -0.00319  -0.02170   1.49895
   A14        2.04375  -0.00019   0.01353   0.00519   0.00183   2.04559
   A15        2.12767   0.00021  -0.01258   0.00582  -0.00023   2.12743
   A16        2.43602   0.00122   0.06337   0.05088   0.09156   2.52759
   A17        2.07750   0.00013  -0.01333   0.00438  -0.00508   2.07243
   A18        1.64561   0.00048  -0.00045   0.00684   0.00402   1.64963
   A19        1.68635   0.00076  -0.00464   0.00504   0.00010   1.68645
   A20        1.58954  -0.00008  -0.02335  -0.00565  -0.02914   1.56041
   A21        1.55588  -0.00054  -0.01916  -0.00100  -0.01911   1.53677
   A22        1.98713   0.00003   0.00301  -0.00311  -0.00101   1.98611
   A23        1.98456  -0.00048   0.00256  -0.00489  -0.00291   1.98165
   A24        1.60661   0.00247   0.07920   0.03081   0.10592   1.71252
   A25        1.95033   0.00296   0.04456   0.04175   0.08537   2.03570
   A26        1.99855   0.00233   0.02531   0.02741   0.05090   2.04945
   A27        2.05839   0.00221  -0.01700   0.03149   0.01565   2.07404
   A28        1.49963  -0.00015  -0.00608   0.00064  -0.00633   1.49330
   A29        2.64875   0.00030   0.01564   0.01110   0.02276   2.67151
   A30        1.48572  -0.00012  -0.00666   0.00166  -0.00555   1.48016
   A31        2.04998   0.00022  -0.00193   0.00368  -0.00308   2.04689
   A32        2.13222  -0.00005  -0.00205   0.00206   0.00175   2.13396
   A33        2.61604   0.00025   0.01523   0.01062   0.02174   2.63777
   A34        2.09105  -0.00011  -0.00319   0.00082  -0.00024   2.09081
   A35        2.09860  -0.00027  -0.00223  -0.00354  -0.00577   2.09283
   A36        2.09627  -0.00006  -0.00076  -0.00069  -0.00145   2.09482
    D1       -1.62411   0.00099   0.09647   0.02566   0.12022  -1.50389
    D2        0.72487   0.00178   0.11443   0.09396   0.21054   0.93541
    D3        0.39378   0.00110   0.09894   0.02708   0.12235   0.51613
    D4        2.74276   0.00189   0.11690   0.09537   0.21267   2.95543
    D5       -1.14322   0.00152   0.11262   0.02609   0.13906  -1.00416
    D6        1.20576   0.00231   0.13059   0.09438   0.22938   1.43514
    D7        2.03819   0.00258  -0.01602   0.03835   0.02331   2.06150
    D8       -0.03517   0.00013   0.00207   0.00436   0.00665  -0.02852
    D9       -0.02413   0.00001   0.00107   0.00171   0.00295  -0.02118
   D10       -2.09749  -0.00244   0.01916  -0.03228  -0.01371  -2.11120
   D11       -0.52373  -0.00073  -0.06006  -0.00128  -0.06057  -0.58430
   D12        3.01909  -0.00078  -0.08219  -0.05480  -0.13617   2.88292
   D13        1.51811  -0.00052  -0.05928   0.00029  -0.05947   1.45864
   D14       -1.22225  -0.00057  -0.08140  -0.05323  -0.13507  -1.35733
   D15        1.08621  -0.00093  -0.08793  -0.00908  -0.09850   0.98772
   D16       -1.65415  -0.00099  -0.11005  -0.06259  -0.17410  -1.82825
   D17       -0.36985  -0.00110  -0.09965  -0.02873  -0.12481  -0.49466
   D18        1.18668  -0.00160  -0.11725  -0.02937  -0.14640   1.04028
   D19        1.65701  -0.00102  -0.09752  -0.02762  -0.12345   1.53356
   D20       -2.79960  -0.00206  -0.12243  -0.10018  -0.22255  -3.02214
   D21       -1.24306  -0.00256  -0.14003  -0.10082  -0.24414  -1.48721
   D22       -0.77274  -0.00198  -0.12030  -0.09907  -0.22119  -0.99393
   D23        0.87229  -0.00077  -0.06342  -0.05867  -0.13144   0.74085
   D24        0.20975  -0.00029   0.02515  -0.03156   0.00708   0.21683
   D25        2.47481   0.00093   0.06791   0.06376   0.14003   2.61484
   D26        3.06499   0.00027  -0.02612   0.03214  -0.00648   3.05851
   D27        0.55725   0.00058   0.05796  -0.00316   0.05388   0.61113
   D28       -2.99219   0.00083   0.07850   0.05261   0.13014  -2.86205
   D29       -1.03177   0.00071   0.08239   0.00297   0.08746  -0.94431
   D30        1.70197   0.00096   0.10293   0.05874   0.16373   1.86570
   D31       -1.46659   0.00033   0.05882  -0.00482   0.05447  -1.41212
   D32        1.26716   0.00058   0.07935   0.05096   0.13074   1.39789
   D33       -0.41049  -0.00013   0.05800   0.03810   0.09541  -0.31507
   D34       -0.09985   0.00032  -0.03141   0.02611  -0.00588  -0.10573
   D35       -2.75570  -0.00000  -0.05754  -0.04128  -0.09813  -2.85383
   D36       -3.08648  -0.00023   0.03060  -0.02502   0.00615  -3.08032
         Item               Value     Threshold  Converged?
 Maximum Force            0.003121     0.000450     NO 
 RMS     Force            0.001219     0.000300     NO 
 Maximum Displacement     0.971907     0.001800     NO 
 RMS     Displacement     0.188997     0.001200     NO 
 Predicted change in Energy=-4.617621D-03
 GradGradGradGradGradGradGradGradGradGradGradGradGradGradGradGradGradGrad

                          Input orientation:                          
 ---------------------------------------------------------------------
 Center     Atomic      Atomic             Coordinates (Angstroms)
 Number     Number       Type             X           Y           Z
 ---------------------------------------------------------------------
      1         13           0        0.495615   -0.377947    1.445356
      2          8           0       -1.228285   -0.440981    1.590116
      3          8           0        1.137087   -1.610384    0.399393
      4          8           0        1.253249    1.174420    1.294360
      5         13           0        1.479909    1.693159   -0.350565
      6         13           0        0.518946   -0.985454   -1.104216
      7         13           0       -2.110839   -0.847431    0.149205
      8          8           0        1.249373    0.508240   -1.593776
      9          8           0       -1.189672   -1.174520   -1.279803
     10          8           0        1.489264    3.347601   -0.783025
     11          8           0       -3.810458   -0.702694    0.049143
     12          1           0       -4.319238   -0.471847    0.828865
     13          1           0        1.547024    4.021488   -0.099603
 ---------------------------------------------------------------------
                    Distance matrix (angstroms):
                    1          2          3          4          5
     1  Al   0.000000
     2  O    1.731115   0.000000
     3  O    1.739087   2.894876   0.000000
     4  O    1.733971   2.975736   2.927387   0.000000
     5  Al   2.912671   3.956654   3.404902   1.739610   0.000000
     6  Al   2.621055   3.257098   1.741688   3.310200   2.943876
     7  Al   2.948563   1.737909   3.345701   4.088563   4.426944
     8  O    3.254198   4.144512   2.910996   2.963974   1.732845
     9  O    3.301698   2.962432   2.902324   4.255784   4.026627
    10  O    4.453395   5.231656   5.109183   3.015617   1.710055
    11  O    4.538407   3.018396   5.042300   5.542134   5.821328
    12  H    4.855069   3.183465   5.590367   5.829193   6.301462
    13  H    4.779895   5.520066   5.668777   3.183588   2.342777
                    6          7          8          9         10
     6  Al   0.000000
     7  Al   2.916484   0.000000
     8  O    1.733296   4.020802   0.000000
     9  O    1.727990   1.731357   2.979799   0.000000
    10  O    4.451971   5.606075   2.962573   5.279494   0.000000
    11  O    4.489313   1.708704   5.455955   2.976111   6.721937
    12  H    5.235324   2.340946   6.151357   3.838543   7.136180
    13  H    5.209190   6.094935   3.829369   5.990065   0.961522
                   11         12         13
    11  O    0.000000
    12  H    0.959225   0.000000
    13  H    7.144413   7.447493   0.000000
 Stoichiometry    Al4H2O7
 Framework group  C1[X(Al4H2O7)]
 Deg. of freedom    33
 Full point group                 C1      NOp   1
 Largest Abelian subgroup         C1      NOp   1
 Largest concise Abelian subgroup C1      NOp   1
                         Standard orientation:                         
 ---------------------------------------------------------------------
 Center     Atomic      Atomic             Coordinates (Angstroms)
 Number     Number       Type             X           Y           Z
 ---------------------------------------------------------------------
      1         13           0        0.041134   -0.304207    1.577537
      2          8           0       -1.401320    0.622098    1.336617
      3          8           0       -0.044329   -1.893181    0.875910
      4          8           0        1.570948    0.491917    1.397232
      5         13           0        2.234200    0.393068   -0.207938
      6         13           0       -0.015918   -1.411297   -0.797547
      7         13           0       -2.192533    0.435456   -0.199441
      8          8           0        1.494672   -0.727958   -1.302996
      9          8           0       -1.484476   -0.670746   -1.327523
     10          8           0        3.250595    1.613259   -0.842260
     11          8           0       -3.467993    1.457037   -0.698685
     12          1           0       -3.828852    2.106036   -0.091483
     13          1           0        3.614602    2.285290   -0.258825
 ---------------------------------------------------------------------
 Rotational constants (GHZ):           1.0822444           0.4916887           0.4904479
 Standard basis: Aug-CC-pVDZ (5D, 7F)
 There are   309 symmetry adapted cartesian basis functions of A   symmetry.
 There are   287 symmetry adapted basis functions of A   symmetry.
   287 basis functions,   643 primitive gaussians,   309 cartesian basis functions
    55 alpha electrons       55 beta electrons
       nuclear repulsion energy      1010.9088192678 Hartrees.
 NAtoms=   13 NActive=   13 NUniq=   13 SFac= 1.00D+00 NAtFMM=   60 NAOKFM=F Big=F
 Integral buffers will be    131072 words long.
 Raffenetti 2 integral format.
 Two-electron integral symmetry is turned on.
 One-electron integrals computed using PRISM.
 NBasis=   287 RedAO= T EigKep=  1.08D-04  NBF=   287
 NBsUse=   287 1.00D-06 EigRej= -1.00D+00 NBFU=   287
 Initial guess from the checkpoint file:  "h2o-ts2-fopt.chk"
 B after Tr=     0.000000   -0.000000   -0.000000
         Rot=    0.985781    0.167267    0.006320    0.014751 Ang=  19.35 deg.
 ExpMin= 1.53D-02 ExpMax= 6.42D+04 ExpMxC= 2.19D+03 IAcc=3 IRadAn=         5 AccDes= 0.00D+00
 Harris functional with IExCor= 1009 and IRadAn=       5 diagonalized for initial guess.
 HarFok:  IExCor= 1009 AccDes= 0.00D+00 IRadAn=         5 IDoV= 1 UseB2=F ITyADJ=14
 ICtDFT=  3500011 ScaDFX=  1.000000  1.000000  1.000000  1.000000
 FoFCou: FMM=F IPFlag=           0 FMFlag=      100000 FMFlg1=           0
         NFxFlg=           0 DoJE=T BraDBF=F KetDBF=T FulRan=T
         wScrn=  0.000000 ICntrl=       500 IOpCl=  0 I1Cent=   200000004 NGrid=           0
         NMat0=    1 NMatS0=      1 NMatT0=    0 NMatD0=    1 NMtDS0=    0 NMtDT0=    0
 Petite list used in FoFCou.
 Requested convergence on RMS density matrix=1.00D-08 within 128 cycles.
 Requested convergence on MAX density matrix=1.00D-06.
 Requested convergence on             energy=1.00D-06.
 No special actions if energy rises.
 SCF Done:  E(RM062X) =  -1497.94361348     A.U. after   13 cycles
            NFock= 13  Conv=0.46D-08     -V/T= 2.0043
 Calling FoFJK, ICntrl=      2127 FMM=F ISym2X=0 I1Cent= 0 IOpClX= 0 NMat=1 NMatS=1 NMatT=0.
 ***** Axes restored to original set *****
 -------------------------------------------------------------------
 Center     Atomic                   Forces (Hartrees/Bohr)
 Number     Number              X              Y              Z
 -------------------------------------------------------------------
      1       13          -0.003415011    0.006678229   -0.002553815
      2        8           0.002047396   -0.003146102    0.001575710
      3        8          -0.000382739    0.002141251   -0.000583145
      4        8           0.002209706   -0.004360250    0.000566496
      5       13          -0.008927969   -0.000893721    0.000037804
      6       13          -0.002950848    0.007094336   -0.000619720
      7       13           0.001588964    0.003275368   -0.000619687
      8        8           0.002187477   -0.004331471    0.001118992
      9        8           0.002091988   -0.003140509    0.000104543
     10        8           0.005757183    0.000921825    0.001808359
     11        8           0.000027545   -0.002784204    0.000539286
     12        1          -0.000092554    0.000011211    0.000115890
     13        1          -0.000141138   -0.001465962   -0.001490715
 -------------------------------------------------------------------
 Cartesian Forces:  Max     0.008927969 RMS     0.002999916

 GradGradGradGradGradGradGradGradGradGradGradGradGradGradGradGradGradGrad
 Berny optimization.
 Using GEDIIS/GDIIS optimizer.
 FormGI is forming the generalized inverse of G from B-inverse, IUseBI=4.
 Internal  Forces:  Max     0.003420874 RMS     0.001240005
 Search for a local minimum.
 Step number   3 out of a maximum of  100
 All quantities printed in internal units (Hartrees-Bohrs-Radians)
 Mixed Optimization -- RFO/linear search
 Update second derivatives using D2CorX and points    2    3
 DE= -5.35D-03 DEPred=-4.62D-03 R= 1.16D+00
 TightC=F SS=  1.41D+00  RLast= 8.36D-01 DXNew= 8.4853D-01 2.5072D+00
 Trust test= 1.16D+00 RLast= 8.36D-01 DXMaxT set to 8.49D-01
 ITU=  1  1  0
 Use linear search instead of GDIIS.
     Eigenvalues ---    0.00374   0.01442   0.04025   0.04271   0.04633
     Eigenvalues ---    0.04634   0.05206   0.05622   0.08642   0.08876
     Eigenvalues ---    0.10732   0.10940   0.12334   0.12670   0.15706
     Eigenvalues ---    0.16000   0.16007   0.16619   0.17909   0.26735
     Eigenvalues ---    0.27060   0.27485   0.27885   0.28056   0.28827
     Eigenvalues ---    0.31474   0.31833   0.32015   0.32395   0.34973
     Eigenvalues ---    0.34991   0.55598   0.56504
 RFO step:  Lambda=-2.31935193D-03 EMin= 3.74363646D-03
 Quartic linear search produced a step of  0.99642.
 Iteration  1 RMS(Cart)=  0.17375853 RMS(Int)=  0.02421064
 Iteration  2 RMS(Cart)=  0.02488229 RMS(Int)=  0.00842043
 Iteration  3 RMS(Cart)=  0.00070478 RMS(Int)=  0.00839772
 Iteration  4 RMS(Cart)=  0.00000417 RMS(Int)=  0.00839772
 Iteration  5 RMS(Cart)=  0.00000005 RMS(Int)=  0.00839772
 Variable       Old X    -DE/DX   Delta X   Delta X   Delta X     New X
                                 (Linear)    (Quad)   (Total)
    R1        3.27133  -0.00134   0.00561  -0.01016  -0.00205   3.26928
    R2        3.28640  -0.00121   0.00256  -0.00537   0.00062   3.28702
    R3        3.27673  -0.00242   0.01498  -0.01754   0.01118   3.28791
    R4        5.50415  -0.00162   0.08365  -0.02416   0.05001   5.55416
    R5        4.95308  -0.00135  -0.01500  -0.00287  -0.02827   4.92480
    R6        5.57198  -0.00135   0.00954  -0.01721  -0.00999   5.56199
    R7        3.28417   0.00115   0.00261   0.00145   0.00455   3.28872
    R8        3.29131  -0.00129   0.00256  -0.00600  -0.00120   3.29011
    R9        3.28739   0.00064   0.00456  -0.00159   0.01026   3.29765
   R10        5.56312  -0.00170   0.07605  -0.02645   0.04159   5.60471
   R11        3.27460   0.00081   0.00431  -0.00096   0.01042   3.28502
   R12        3.23154  -0.00058   0.00331  -0.00337  -0.00006   3.23147
   R13        5.51136  -0.00114   0.01922  -0.01264   0.00527   5.51663
   R14        3.27545  -0.00250   0.01403  -0.01786   0.00724   3.28269
   R15        3.26543  -0.00128   0.00585  -0.00965  -0.00072   3.26471
   R16        3.27179   0.00121   0.00269   0.00195   0.00515   3.27694
   R17        3.22898  -0.00021   0.00151  -0.00133   0.00018   3.22917
   R18        1.81701  -0.00210   0.00381  -0.00382  -0.00000   1.81701
   R19        1.81267   0.00015  -0.00023   0.00041   0.00018   1.81285
    A1        1.97339  -0.00047  -0.00355  -0.00419  -0.00725   1.96614
    A2        2.06576   0.00321   0.01873   0.02952   0.05145   2.11720
    A3        1.99762   0.00249   0.09346   0.02145   0.11359   2.11121
    A4        1.65265   0.00065   0.00406   0.00376   0.00885   1.66150
    A5        2.00524  -0.00109  -0.00029  -0.01261  -0.01495   1.99029
    A6        1.57921  -0.00058  -0.03180  -0.00867  -0.03990   1.53932
    A7        1.51961  -0.00036  -0.01597  -0.00368  -0.01717   1.50244
    A8        1.68999   0.00020   0.00305   0.00043   0.00108   1.69107
    A9        2.08347   0.00236   0.04767   0.02238   0.06932   2.15279
   A10        1.71217   0.00119   0.10605   0.01076   0.10982   1.82198
   A11        1.48186  -0.00029  -0.02302   0.00463  -0.01963   1.46223
   A12        2.57871   0.00046   0.10430   0.02834   0.09510   2.67382
   A13        1.49895  -0.00034  -0.02162   0.00380  -0.01857   1.48038
   A14        2.04559  -0.00085   0.00183   0.00246  -0.01707   2.02852
   A15        2.12743   0.00081  -0.00023   0.00885   0.01929   2.14673
   A16        2.52759   0.00034   0.09124   0.02462   0.06999   2.59758
   A17        2.07243   0.00069  -0.00506   0.00800   0.00447   2.07690
   A18        1.64963   0.00030   0.00401   0.00216   0.00341   1.65304
   A19        1.68645   0.00051   0.00010   0.00089   0.00047   1.68693
   A20        1.56041  -0.00054  -0.02903  -0.00780  -0.03664   1.52377
   A21        1.53677  -0.00041  -0.01904  -0.00495  -0.02152   1.51525
   A22        1.98611  -0.00097  -0.00101  -0.01185  -0.01482   1.97129
   A23        1.98165  -0.00050  -0.00290  -0.00460  -0.00785   1.97380
   A24        1.71252   0.00116   0.10554   0.01030   0.10821   1.82073
   A25        2.03570   0.00231   0.08506   0.01752   0.10051   2.13621
   A26        2.04945   0.00241   0.05072   0.02433   0.07349   2.12294
   A27        2.07404   0.00311   0.01560   0.02827   0.04687   2.12091
   A28        1.49330  -0.00001  -0.00630   0.00264  -0.00589   1.48741
   A29        2.67151   0.00006   0.02268   0.00503   0.02015   2.69166
   A30        1.48016   0.00006  -0.00553   0.00389  -0.00293   1.47723
   A31        2.04689   0.00007  -0.00307   0.00425  -0.00403   2.04286
   A32        2.13396   0.00011   0.00174   0.00040   0.00410   2.13807
   A33        2.63777  -0.00001   0.02166   0.00430   0.01777   2.65555
   A34        2.09081   0.00007  -0.00024  -0.00007   0.00262   2.09342
   A35        2.09283   0.00001  -0.00575   0.00107  -0.00469   2.08814
   A36        2.09482   0.00002  -0.00145   0.00037  -0.00107   2.09375
    D1       -1.50389  -0.00032   0.11979  -0.00109   0.11383  -1.39006
    D2        0.93541   0.00156   0.20979   0.07939   0.29190   1.22731
    D3        0.51613  -0.00057   0.12191  -0.00530   0.10960   0.62573
    D4        2.95543   0.00131   0.21191   0.07518   0.28768  -3.04008
    D5       -1.00416  -0.00012   0.13857  -0.00036   0.13781  -0.86635
    D6        1.43514   0.00176   0.22856   0.08012   0.31589   1.75102
    D7        2.06150   0.00342   0.02323   0.03226   0.05841   2.11992
    D8       -0.02852   0.00012   0.00662   0.00293   0.00990  -0.01862
    D9       -0.02118  -0.00001   0.00294   0.00139   0.00395  -0.01723
   D10       -2.11120  -0.00331  -0.01367  -0.02794  -0.04457  -2.15577
   D11       -0.58430   0.00056  -0.06035   0.00155  -0.05725  -0.64156
   D12        2.88292  -0.00011  -0.13569  -0.04176  -0.17605   2.70686
   D13        1.45864  -0.00039  -0.05926  -0.01029  -0.06973   1.38891
   D14       -1.35733  -0.00106  -0.13459  -0.05360  -0.18853  -1.54586
   D15        0.98772  -0.00014  -0.09814  -0.00829  -0.10864   0.87908
   D16       -1.82825  -0.00081  -0.17348  -0.05160  -0.22744  -2.05569
   D17       -0.49466   0.00053  -0.12436   0.00354  -0.11365  -0.60831
   D18        1.04028   0.00002  -0.14588  -0.00273  -0.14722   0.89306
   D19        1.53356   0.00020  -0.12301  -0.00191  -0.12089   1.41266
   D20       -3.02214  -0.00140  -0.22175  -0.07456  -0.29230   2.96874
   D21       -1.48721  -0.00191  -0.24327  -0.08084  -0.32588  -1.81309
   D22       -0.99393  -0.00174  -0.22040  -0.08002  -0.29955  -1.29348
   D23        0.74085  -0.00084  -0.13097  -0.06028  -0.20483   0.53603
   D24        0.21683  -0.00122   0.00706  -0.03796  -0.01064   0.20620
   D25        2.61484   0.00086   0.13952   0.05862   0.20832   2.82315
   D26        3.05851   0.00118  -0.00645   0.03726   0.01393   3.07244
   D27        0.61113  -0.00069   0.05368  -0.00448   0.04769   0.65882
   D28       -2.86205   0.00018   0.12968   0.03977   0.16775  -2.69430
   D29       -0.94431  -0.00004   0.08715   0.00448   0.09516  -0.84915
   D30        1.86570   0.00082   0.16314   0.04873   0.21522   2.08091
   D31       -1.41212   0.00014   0.05428   0.00666   0.06187  -1.35025
   D32        1.39789   0.00100   0.13027   0.05091   0.18193   1.57982
   D33       -0.31507  -0.00009   0.09507   0.03453   0.12838  -0.18669
   D34       -0.10573   0.00097  -0.00586   0.01724   0.01078  -0.09495
   D35       -2.85383  -0.00004  -0.09778  -0.03586  -0.13224  -2.98608
   D36       -3.08032  -0.00086   0.00613  -0.01610  -0.00954  -3.08986
         Item               Value     Threshold  Converged?
 Maximum Force            0.003421     0.000450     NO 
 RMS     Force            0.001240     0.000300     NO 
 Maximum Displacement     0.982264     0.001800     NO 
 RMS     Displacement     0.193860     0.001200     NO 
 Predicted change in Energy=-3.179416D-03
 GradGradGradGradGradGradGradGradGradGradGradGradGradGradGradGradGradGrad

                          Input orientation:                          
 ---------------------------------------------------------------------
 Center     Atomic      Atomic             Coordinates (Angstroms)
 Number     Number       Type             X           Y           Z
 ---------------------------------------------------------------------
      1         13           0        0.370525   -0.247676    1.420850
      2          8           0       -1.344308   -0.407441    1.584635
      3          8           0        1.062351   -1.470580    0.395447
      4          8           0        1.122540    1.313840    1.268048
      5         13           0        1.537170    1.776263   -0.362722
      6         13           0        0.424997   -0.869902   -1.109287
      7         13           0       -2.200897   -0.934933    0.164529
      8          8           0        1.159165    0.623468   -1.607736
      9          8           0       -1.271580   -1.144864   -1.284383
     10          8           0        1.912446    3.384092   -0.807949
     11          8           0       -3.905228   -1.044849    0.108154
     12          1           0       -4.422021   -0.886747    0.900759
     13          1           0        2.066816    4.042977   -0.124895
 ---------------------------------------------------------------------
                    Distance matrix (angstroms):
                    1          2          3          4          5
     1  Al   0.000000
     2  O    1.730030   0.000000
     3  O    1.739416   2.887289   0.000000
     4  O    1.739887   3.024628   2.918570   0.000000
     5  Al   2.939136   4.106540   3.367828   1.745039   0.000000
     6  Al   2.606094   3.255998   1.741051   3.302577   2.965886
     7  Al   2.943276   1.740314   3.314970   4.161726   4.647765
     8  O    3.248566   4.185855   2.899509   2.957716   1.738357
     9  O    3.289337   2.963164   2.893985   4.276907   4.155901
    10  O    4.531535   5.541356   5.073329   3.036389   1.710022
    11  O    4.543205   3.024003   4.994058   5.673377   6.148177
    12  H    4.862859   3.189003   5.538459   5.976591   6.648305
    13  H    4.865844   5.862122   5.628412   3.206265   2.339888
                    6          7          8          9         10
     6  Al   0.000000
     7  Al   2.919273   0.000000
     8  O    1.737126   4.106039   0.000000
     9  O    1.727610   1.734084   3.023256   0.000000
    10  O    4.516611   6.043119   2.971218   5.556659   0.000000
    11  O    4.501512   1.708801   5.601395   2.980816   7.368860
    12  H    5.247299   2.340458   6.302613   3.842752   7.828488
    13  H    5.272663   6.563286   3.836103   6.277180   0.961521
                   11         12         13
    11  O    0.000000
    12  H    0.959319   0.000000
    13  H    7.848923   8.213351   0.000000
 Stoichiometry    Al4H2O7
 Framework group  C1[X(Al4H2O7)]
 Deg. of freedom    33
 Full point group                 C1      NOp   1
 Largest Abelian subgroup         C1      NOp   1
 Largest concise Abelian subgroup C1      NOp   1
                         Standard orientation:                         
 ---------------------------------------------------------------------
 Center     Atomic      Atomic             Coordinates (Angstroms)
 Number     Number       Type             X           Y           Z
 ---------------------------------------------------------------------
      1         13           0        0.011379    1.234466    0.916092
      2          8           0       -1.468643    1.471170    0.052084
      3          8           0       -0.045389   -0.142427    1.977464
      4          8           0        1.554431    1.474753    0.148980
      5         13           0        2.345815    0.015438   -0.388860
      6         13           0       -0.024712   -1.365310    0.738355
      7         13           0       -2.301594    0.026375   -0.445359
      8          8           0        1.503258   -1.473571   -0.080910
      9          8           0       -1.519732   -1.486617   -0.118870
     10          8           0        3.649600    0.016635   -1.495348
     11          8           0       -3.718475    0.065831   -1.399766
     12          1           0       -4.127230    0.906332   -1.616031
     13          1           0        4.085283    0.844893   -1.716013
 ---------------------------------------------------------------------
 Rotational constants (GHZ):           1.2161894           0.4643344           0.4437331
 Standard basis: Aug-CC-pVDZ (5D, 7F)
 There are   309 symmetry adapted cartesian basis functions of A   symmetry.
 There are   287 symmetry adapted basis functions of A   symmetry.
   287 basis functions,   643 primitive gaussians,   309 cartesian basis functions
    55 alpha electrons       55 beta electrons
       nuclear repulsion energy      1004.4221418227 Hartrees.
 NAtoms=   13 NActive=   13 NUniq=   13 SFac= 1.00D+00 NAtFMM=   60 NAOKFM=F Big=F
 Integral buffers will be    131072 words long.
 Raffenetti 2 integral format.
 Two-electron integral symmetry is turned on.
 One-electron integrals computed using PRISM.
 NBasis=   287 RedAO= T EigKep=  1.07D-04  NBF=   287
 NBsUse=   287 1.00D-06 EigRej= -1.00D+00 NBFU=   287
 Initial guess from the checkpoint file:  "h2o-ts2-fopt.chk"
 B after Tr=    -0.000000    0.000000   -0.000000
         Rot=    0.861391    0.507906    0.005884    0.001457 Ang=  61.05 deg.
 ExpMin= 1.53D-02 ExpMax= 6.42D+04 ExpMxC= 2.19D+03 IAcc=3 IRadAn=         5 AccDes= 0.00D+00
 Harris functional with IExCor= 1009 and IRadAn=       5 diagonalized for initial guess.
 HarFok:  IExCor= 1009 AccDes= 0.00D+00 IRadAn=         5 IDoV= 1 UseB2=F ITyADJ=14
 ICtDFT=  3500011 ScaDFX=  1.000000  1.000000  1.000000  1.000000
 FoFCou: FMM=F IPFlag=           0 FMFlag=      100000 FMFlg1=           0
         NFxFlg=           0 DoJE=T BraDBF=F KetDBF=T FulRan=T
         wScrn=  0.000000 ICntrl=       500 IOpCl=  0 I1Cent=   200000004 NGrid=           0
         NMat0=    1 NMatS0=      1 NMatT0=    0 NMatD0=    1 NMtDS0=    0 NMtDT0=    0
 Petite list used in FoFCou.
 Requested convergence on RMS density matrix=1.00D-08 within 128 cycles.
 Requested convergence on MAX density matrix=1.00D-06.
 Requested convergence on             energy=1.00D-06.
 No special actions if energy rises.
 SCF Done:  E(RM062X) =  -1497.94767480     A.U. after   13 cycles
[...]
 ! A25   A(5,6,9)              131.6001         -DE/DX =    0.0                 !
 ! A26   A(7,6,8)              131.5999         -DE/DX =    0.0                 !
 ! A27   A(8,6,9)              127.6896         -DE/DX =    0.0                 !
 ! A28   A(1,7,9)               86.9889         -DE/DX =    0.0                 !
 ! A29   A(1,7,11)             153.1723         -DE/DX =    0.0                 !
 ! A30   A(2,7,6)               87.1549         -DE/DX =    0.0                 !
 ! A31   A(2,7,9)              118.8373         -DE/DX =    0.0                 !
 ! A32   A(2,7,11)             121.9659         -DE/DX =    0.0                 !
 ! A33   A(6,7,11)             150.258          -DE/DX =    0.0                 !
 ! A34   A(9,7,11)             119.1292         -DE/DX =    0.0                 !
 ! A35   A(5,10,13)            120.1122         -DE/DX =    0.0                 !
 ! A36   A(7,11,12)            120.1121         -DE/DX =    0.0                 !
 ! D1    D(2,1,5,8)            -66.8479         -DE/DX =    0.0                 !
 ! D2    D(2,1,5,10)           125.7089         -DE/DX =    0.0                 !
 ! D3    D(3,1,5,8)             43.5274         -DE/DX =    0.0                 !
 ! D4    D(3,1,5,10)          -123.9158         -DE/DX =    0.0                 !
 ! D5    D(7,1,5,8)            -33.1649         -DE/DX =    0.0                 !
 ! D6    D(7,1,5,10)           159.3919         -DE/DX =    0.0                 !
 ! D7    D(2,1,6,8)            128.984          -DE/DX =    0.0                 !
 ! D8    D(2,1,6,9)              0.137          -DE/DX =    0.0                 !
 ! D9    D(4,1,6,8)             -0.1372         -DE/DX =    0.0                 !
 ! D10   D(4,1,6,9)           -128.9842         -DE/DX =    0.0                 !
 ! D11   D(3,1,7,9)            -43.5271         -DE/DX =    0.0                 !
 ! D12   D(3,1,7,11)           123.9163         -DE/DX =    0.0                 !
 ! D13   D(4,1,7,9)             66.8482         -DE/DX =    0.0                 !
 ! D14   D(4,1,7,11)          -125.7084         -DE/DX =    0.0                 !
 ! D15   D(5,1,7,9)             33.1651         -DE/DX =    0.0                 !
 ! D16   D(5,1,7,11)          -159.3915         -DE/DX =    0.0                 !
 ! D17   D(4,5,6,3)            -43.3294         -DE/DX =    0.0                 !
 ! D18   D(4,5,6,7)             33.3132         -DE/DX =    0.0                 !
 ! D19   D(4,5,6,9)             66.7626         -DE/DX =    0.0                 !
 ! D20   D(10,5,6,3)           125.6321         -DE/DX =    0.0                 !
 ! D21   D(10,5,6,7)          -157.7253         -DE/DX =    0.0                 !
 ! D22   D(10,5,6,9)          -124.2759         -DE/DX =    0.0                 !
 ! D23   D(1,5,10,13)          -16.5984         -DE/DX =    0.0                 !
 ! D24   D(4,5,10,13)            0.8183         -DE/DX =    0.0                 !
 ! D25   D(6,5,10,13)         -166.1545         -DE/DX =    0.0                 !
 ! D26   D(8,5,10,13)          177.7929         -DE/DX =    0.0                 !
 ! D27   D(3,6,7,2)             43.3293         -DE/DX =    0.0                 !
 ! D28   D(3,6,7,11)          -125.6326         -DE/DX =    0.0                 !
 ! D29   D(5,6,7,2)            -33.3131         -DE/DX =    0.0                 !
 ! D30   D(5,6,7,11)           157.7249         -DE/DX =    0.0                 !
 ! D31   D(8,6,7,2)            -66.7626         -DE/DX =    0.0                 !
 ! D32   D(8,6,7,11)           124.2754         -DE/DX =    0.0                 !
 ! D33   D(1,7,11,12)           16.5986         -DE/DX =    0.0                 !
 ! D34   D(2,7,11,12)           -0.8179         -DE/DX =    0.0                 !
 ! D35   D(6,7,11,12)          166.1554         -DE/DX =    0.0                 !
 ! D36   D(9,7,11,12)         -177.7924         -DE/DX =    0.0                 !
 --------------------------------------------------------------------------------
 GradGradGradGradGradGradGradGradGradGradGradGradGradGradGradGradGradGrad


 ----------------------------------------------------------------------

 Electric dipole moment (input orientation):
 (Debye = 10**-18 statcoulomb cm , SI units = C m)
                  (au)            (Debye)         (10**-30 SI)
   Tot        0.109062D+01      0.277208D+01      0.924668D+01
   x          0.293803D+00      0.746772D+00      0.249096D+01
   y         -0.179275D+00     -0.455671D+00     -0.151995D+01
   z          0.103489D+01      0.263043D+01      0.877416D+01

 Dipole polarizability, Alpha (input orientation).
 (esu units = cm**3 , SI units = C**2 m**2 J**-1)
 Alpha(0;0):
               (au)            (10**-24 esu)      (10**-40 SI)
   iso        0.915124D+02      0.135607D+02      0.150883D+02
   aniso      0.297269D+02      0.440507D+01      0.490130D+01
   xx         0.976197D+02      0.144657D+02      0.160953D+02
   yx         0.157838D+02      0.233891D+01      0.260239D+01
   yy         0.892127D+02      0.132200D+02      0.147092D+02
   zx        -0.403630D+01     -0.598118D+00     -0.665496D+00
   zy         0.774872D+00      0.114824D+00      0.127759D+00
   zz         0.877047D+02      0.129965D+02      0.144605D+02

 ----------------------------------------------------------------------

 Dipole orientation:
    13         -0.55852833          0.68125513          2.45614931
     8         -3.72461653          0.07427734          2.01987971
     8          1.26992253         -1.85279543          1.43902144
     8          1.01395607          3.49512941          2.01691159
    13          3.07873661          3.45011063         -0.54974135
    13          0.97138846         -1.43797757         -1.81038451
    13         -4.33225562         -1.89952505         -0.54682980
     8          2.73948225          1.09872934         -2.81425775
     8         -1.99441247         -2.31433546         -2.81273465
     8          5.32562819          5.72843034         -0.97394376
     8         -7.20125985         -3.31680989         -0.97003629
     1         -8.53124594         -3.05613774          0.23392166
     1          5.49705065          7.07248078          0.23042622

 Electric dipole moment (dipole orientation):
 (Debye = 10**-18 statcoulomb cm , SI units = C m)
                  (au)            (Debye)         (10**-30 SI)
   Tot        0.109062D+01      0.277208D+01      0.924668D+01
   x          0.000000D+00      0.000000D+00      0.000000D+00
   y          0.000000D+00      0.000000D+00      0.000000D+00
   z          0.109062D+01      0.277208D+01      0.924668D+01

 Dipole polarizability, Alpha (dipole orientation).
 (esu units = cm**3 , SI units = C**2 m**2 J**-1)
 Alpha(0;0):
               (au)            (10**-24 esu)      (10**-40 SI)
   iso        0.915124D+02      0.135607D+02      0.150883D+02
   aniso      0.297269D+02      0.440507D+01      0.490130D+01
   xx         0.996706D+02      0.147697D+02      0.164335D+02
   yx         0.144272D+02      0.213788D+01      0.237872D+01
   yy         0.901047D+02      0.133521D+02      0.148563D+02
   zx        -0.317885D+01     -0.471057D+00     -0.524122D+00
   zy         0.438870D+01      0.650339D+00      0.723600D+00
   zz         0.847618D+02      0.125604D+02      0.139753D+02

 ----------------------------------------------------------------------
 Unable to Open any file for archive entry.
 1\1\GINC-NODE167\Freq\RM062X\Aug-CC-pVDZ\Al4H2O7\XIONG\02-Jul-2025\0\\
 #N Geom=AllCheck Guess=TCheck SCRF=Check GenChk RM062X/Aug-CC-pVDZ Fre
 q\\Title Card Required\\0,1\Al,0.0737729943,0.1351420924,1.3722001586\
 O,-1.6087517467,-0.1817225496,1.5516774009\O,0.8298526566,-1.07676823,
 0.3803840477\O,0.8461278255,1.6606499582,1.1722433367\Al,1.5316456484,
 1.8852446729,-0.4148252865\Al,0.2195262328,-0.5812384468,-1.1726176951
 \Al,-2.307956832,-0.9957726915,0.1777714967\O,1.0077144068,0.851099190
 2,-1.7080926866\O,-1.4448942782,-0.9870276649,-1.3293736988\O,2.643296
 2655,3.1380794888,-0.7499578614\O,-3.8470061971,-1.7330526198,0.250972
 5812\H,-4.3498327132,-1.717741312,1.0677935787\H,2.9184807372,3.736758
 112,-0.0527253722\\Version=ES64L-G16RevC.01\State=1-A\HF=-1497.9526793
 \RMSD=2.020e-09\RMSF=2.273e-05\ZeroPoint=0.0529114\Thermal=0.0655977\E
 Tot=-1497.8870816\HTot=-1497.8861374\GTot=-1497.9394809\Dipole=0.29380
 26,-0.1792746,1.0348895\DipoleDeriv=1.6947642,0.2942752,-0.1543927,0.2
 900998,1.5725222,0.0960359,-0.1748182,0.1232585,1.4066288,-1.3635222,-
 0.281857,0.0160792,-0.2791471,-0.8477623,-0.1332584,-0.0820727,-0.1794
 901,-1.0094559,-0.9990118,0.0001263,0.0050827,0.0005854,-1.0053859,-0.
 0249901,0.006708,-0.0272431,-1.08948,-0.9661787,-0.3373561,0.1678752,-
 0.3452568,-1.1627949,0.0367314,0.2405321,0.1169881,-1.0919515,1.502079
 1,0.5921614,-0.1273268,0.5584595,1.8440906,0.0154559,-0.1668107,-0.034
 3231,1.5960411,1.6686314,0.3428793,-0.0082286,0.3471994,1.4502816,-0.0
 659003,0.0139812,-0.0953529,1.5546779,2.1132304,0.3951505,-0.1438314,0
 .4319256,1.2568472,0.0928932,-0.0902491,0.1239952,1.5725019,-0.9186142
 ,-0.3320053,0.0304806,-0.3779882,-1.2021247,-0.0187784,-0.0143073,-0.0
 833807,-1.0304005,-1.333745,-0.2389996,0.1067854,-0.1884334,-0.7563203
 ,-0.0384262,0.174085,-0.0040131,-1.0616489,-0.9164263,-0.2938475,0.039
 2438,-0.3015054,-1.0182269,0.0619241,0.0435683,0.0633461,-0.6405155,-1
 .1707577,-0.2263012,0.0691976,-0.2186239,-0.7619322,0.0423089,0.065497
 6,0.0400179,-0.6425514,0.3639924,0.0449532,0.0212127,0.0286264,0.29656
 74,-0.0115631,-0.0301442,-0.0365928,0.2177176,0.3255583,0.0408208,-0.0
 221777,0.0540589,0.3342382,-0.052433,0.01403,-0.0072099,0.2184364\Pola
 r=97.6196968,15.7837662,89.212723,-4.0363007,0.7748716,87.7046587\Quad
 rupole=-1.888393,0.3496444,1.5387486,-3.0495558,-0.5272109,1.8732312\P
 G=C01 [X(Al4H2O7)]\NImag=0\\0.35883481,0.08344417,0.33373698,-0.078919
 81,0.05508087,0.19058053,-0.22105763,-0.03425717,0.02506575,0.30087430
 ,-0.03645028,-0.03242431,0.00099243,0.07906130,0.08661839,0.02291936,0
 .00081815,-0.03240763,0.03165898,0.07677200,0.16516453,-0.06231429,0.0
 5255894,0.03918901,-0.01289434,0.00932272,0.01075188,0.11050180,0.0535
 0272,-0.11345973,-0.06413718,0.00513239,0.00699519,-0.00090686,-0.0799
 1565,0.16086902,0.04380187,-0.07029964,-0.08687387,0.01717015,-0.00487
 198,0.00826229,0.01274413,0.02773039,0.26664798,-0.06534222,-0.0816599
 7,0.01123463,-0.00722403,-0.01328655,-0.00226211,0.00890480,0.00107558
 ,-0.00015380,0.11162867,-0.07981390,-0.18823041,0.01537788,-0.00706017
 ,-0.00096480,-0.00054104,-0.00468502,-0.01883598,-0.01317024,0.1063935
 7,0.23424100,0.01169786,0.01777730,-0.03225043,0.00551120,0.00625441,0
 .00928210,-0.00142592,-0.00688955,0.01229830,-0.08873972,-0.03971468,0
 .20671934,-0.00569214,-0.01234870,0.01139723,0.00216346,0.00202289,-0.
 00084493,-0.00240792,0.00525093,-0.00074474,-0.05396159,-0.01292782,0.
 06184537,0.23034276,-0.01330438,-0.00004699,0.02129891,0.00282627,-0.0
 0210492,-0.00264929,0.00698096,0.00733971,-0.00797309,-0.01335601,-0.0
 3440097,0.02028248,0.18992813,0.30393136,0.01521339,0.02653938,-0.0001
 7584,-0.00680224,-0.00737304,-0.00431842,-0.00089458,-0.00758477,-0.01
 903529,0.06228755,0.01927149,-0.17221807,-0.05246713,0.03242879,0.3363
 9221,0.02487350,0.00157527,0.00444609,-0.01041698,-0.00183910,-0.01287
 012,-0.05126258,0.01812260,-0.05518447,-0.00508094,0.00204544,0.006880
 38,-0.00356859,-0.01782562,-0.00807190,0.34703501,0.00155774,0.0188426
 2,-0.02174070,-0.00040924,-0.00605200,-0.00257089,0.01908240,-0.045248
 82,0.04577684,0.00006364,-0.00578624,0.01280108,-0.01458613,-0.0226456
 3,-0.01531627,0.12393582,0.25429613,0.00436645,-0.02162359,-0.05173360
 ,-0.01227111,0.00096954,0.00102407,-0.05049133,0.03951207,-0.16482078,
 0.00356974,0.01287849,-0.00458168,-0.00514019,-0.01003049,0.01925549,0
 .03233350,-0.07469598,0.28252140,-0.01691205,-0.01704652,-0.01794462,-
 0.06095651,-0.03517381,-0.05337053,0.01164847,0.00356334,0.00129121,0.
 00152478,0.00459831,0.00094772,-0.00262999,-0.00550456,0.00061990,-0.0
 2237885,-0.00676013,0.02049875,0.38697414,-0.01656986,0.00030336,-0.00
 149961,-0.03450213,-0.06300781,-0.06368598,0.00178605,-0.00573294,-0.0
 0400730,0.00386436,0.00096312,-0.00153634,-0.00237628,0.00013119,0.002
 49377,-0.00301530,0.00493140,0.00473493,0.14749874,0.15177470,-0.02412
 759,-0.00355392,0.01070492,-0.05261374,-0.06428963,-0.13661623,0.00121
 281,-0.00410030,-0.02002709,0.00726339,0.00271119,-0.00675724,0.000111
 70,0.00260010,0.00911806,0.02589984,0.00676790,0.01049648,-0.04974526,
 0.05892943,0.33192341,-0.00394076,-0.00085853,-0.00401824,0.00170943,0
 .00059338,0.00272256,0.00867895,-0.00018428,0.00029620,0.00855698,0.00
 202107,0.00056772,-0.04199413,-0.03506240,-0.03906092,-0.06735304,-0.0
 7978797,0.02997089,0.00273847,-0.00006765,-0.00731898,0.10122132,-0.00
 089840,-0.01698850,-0.00548701,-0.00098922,0.00392345,0.00280963,-0.00
 513637,-0.00156896,0.02106521,0.00246451,0.01066856,-0.01130822,-0.034
 44386,-0.09265198,-0.07982564,-0.07848815,-0.16748536,0.05598882,0.004
 30275,-0.00144268,-0.00558892,0.13337760,0.27533818,-0.00785928,-0.005
 59959,0.00542526,0.00416290,0.00163465,0.00170286,0.00456880,0.0154360
 7,-0.00459847,0.00075845,-0.00388459,-0.01408038,-0.03846259,-0.080266
 95,-0.12973191,0.02849494,0.05306489,-0.05232052,-0.00217726,-0.001538
 82,-0.00519499,0.01417978,0.02385136,0.18509740,-0.01305803,0.00515229
 ,0.00937102,0.01342517,0.00200632,0.00506916,-0.00927721,-0.00500214,-
 0.01895422,0.00242918,-0.00270290,-0.00321094,0.00152719,0.00614630,0.
 00514777,-0.21842753,-0.04713673,-0.02218173,-0.07436603,-0.00180503,0
 .07747513,-0.00713751,-0.00956168,-0.00281075,0.31573018,0.00465132,-0
 .00320337,0.00265026,0.00016613,0.00620548,-0.00700968,0.00151164,0.00
 988234,0.00355746,-0.00072987,0.00124730,-0.00160146,0.00186404,0.0020
 6147,0.00399557,-0.04805965,-0.03534073,-0.00527508,-0.00222186,-0.025
 11969,-0.00093016,-0.01013950,-0.00123897,-0.00135746,0.05856128,0.042
 38660,0.01058194,0.00625564,0.00074828,-0.00194892,-0.00533520,-0.0144
 8981,-0.01559244,-0.00098149,0.00189094,-0.00275023,-0.00296102,0.0036
 6962,0.00046352,-0.00066534,-0.00750202,-0.01882045,-0.00490270,-0.033
 35028,0.07783562,-0.00172052,-0.16489815,0.00695234,0.00587341,0.00954
 313,-0.06209988,0.00270992,0.20353197,0.00163167,0.00348499,-0.0003875
 4,-0.00119520,-0.00095974,-0.00003281,0.00024711,-0.00181397,0.0001741
 6,-0.00170307,-0.00921505,0.00642237,-0.11748040,-0.11065115,0.0320525
 9,0.00134932,0.00295931,-0.00066437,0.00113361,0.00075845,0.00000907,-
 0.00119643,-0.00755770,-0.00123553,-0.00099210,-0.00075775,0.00015094,
 0.17288121,0.00201488,0.00249366,-0.00166415,-0.00150148,-0.00049208,0
 .00034577,-0.00079245,-0.00144919,0.00135221,-0.00646739,-0.00062725,0
 .00429162,-0.11713799,-0.15084004,0.03598264,0.00278088,0.00428291,-0.
 00154348,0.00181671,0.00036405,-0.00050554,-0.00845301,-0.00844336,-0.
 00195942,-0.00200276,-0.00093280,0.00056979,0.22966480,0.37983946,-0.0
 0163153,-0.00526597,-0.00175788,0.00144847,0.00163918,0.00105201,-0.00
 001976,0.00124113,0.00336353,0.01041967,0.01100587,-0.00205490,0.01584
 529,0.01574893,-0.02952953,0.00115476,0.00236348,-0.00396853,-0.000194
 12,-0.00058351,-0.00191831,-0.00689302,-0.00986561,0.00237696,-0.00090
 160,-0.00061420,0.00154257,0.08749662,0.22145206,0.32010597,0.00500342
 ,0.00145320,0.00015159,-0.00827007,-0.00752284,-0.00353003,-0.00227856
 ,-0.00013609,-0.00021423,-0.00152353,-0.00161998,0.00043214,0.00117307
 ,0.00176452,-0.00039419,0.00501096,0.00146075,-0.00033736,-0.21195483,
 -0.09305477,0.00679587,-0.00147783,-0.00163005,0.00025471,-0.00889977,
 -0.00387699,0.00508003,-0.00058485,-0.00080742,0.00014075,0.38659716,0
 .00339757,0.00010767,-0.00108291,-0.01090749,0.00101011,-0.00325185,-0
 .00113504,0.00097494,0.00081997,-0.00112984,-0.00052386,0.00059903,0.0
 0072380,0.00027681,-0.00063447,0.00115126,-0.00012423,-0.00061868,-0.0
 8517824,-0.06038440,0.00116584,-0.00034846,-0.00007479,0.00033523,-0.0
 0230393,0.00328172,0.00094727,-0.00033147,-0.00023452,0.00016197,0.098
 02613,0.06204502,0.00370723,-0.00055621,-0.00275062,-0.01064354,-0.005
 82089,0.00287984,0.00009720,0.00077506,0.00346765,-0.00130129,-0.00036
 062,0.00141380,-0.00010647,-0.00066954,-0.00187063,-0.00458783,-0.0012
 8133,-0.00321720,0.02968550,0.01249368,-0.02552594,0.00149833,0.001263
 27,0.00116693,0.01406614,0.00441644,-0.00164305,0.00005240,0.00016920,
 0.00040578,-0.26748766,0.00020632,0.42418742,-0.00165140,-0.00032892,0
 .00042194,0.00350286,0.00183084,-0.00032612,0.00049897,-0.00010962,-0.
 00066275,0.00059664,0.00043157,-0.00034292,-0.00028139,-0.00024659,0.0
 0045230,0.00013952,-0.00012431,0.00085934,-0.01462585,-0.00227940,0.01
 527747,-0.00000814,0.00007435,-0.00030278,-0.00096535,-0.00106260,-0.0
 0004007,0.00012846,0.00014245,-0.00010843,-0.16290385,-0.00205498,0.23
 498118,0.17560386,-0.00078374,0.00009585,0.00019532,0.00187958,-0.0000
 9226,-0.00023088,0.00023928,-0.00024872,-0.00037544,0.00028655,0.00006
 215,-0.00017031,-0.00014101,0.00001276,0.00022078,-0.00005014,0.000303
 62,0.00034864,-0.00951964,-0.00257601,0.00704678,0.00001910,-0.0001011
 0,-0.00013971,-0.00151829,0.00075710,0.00000202,0.00006641,0.00002214,
 -0.00005153,0.00576825,-0.00643067,-0.01067533,0.00377681,0.00820799,0
 .00015749,0.00009964,0.00022269,-0.00068192,-0.00046032,-0.00139121,-0
 .00017102,-0.00004361,-0.00019385,-0.00006795,-0.00009606,-0.00007818,
 0.00011317,0.00014739,0.00010963,0.00056653,0.00016291,0.00017862,-0.0
 0739026,-0.00410808,-0.00154537,-0.00020120,-0.00016795,-0.00006657,-0
 .00114729,-0.00065663,0.00115793,-0.00005276,-0.00006553,-0.00002553,0
 .25908353,0.00135384,-0.39845426,-0.25021526,0.00382582,0.40007620,-0.
 00037487,-0.00116907,-0.00000707,0.00033955,0.00039489,0.00011469,-0.0
 0004519,0.00051419,0.00043649,0.00119435,0.00253490,-0.00058524,-0.007
 19032,-0.01169546,-0.00808255,0.00008020,-0.00025516,-0.00051259,-0.00
 019536,-0.00023719,-0.00023974,0.00020269,-0.00151380,0.00042862,0.000
 01182,0.00009383,0.00018760,-0.05421933,-0.09925723,-0.10675711,0.0001
 0868,0.00009069,0.00003880,-0.00003431,-0.00002316,0.00000695,0.060122
 10,-0.00074784,-0.00122682,0.00001590,0.00056123,0.00038555,0.00010092
 ,0.00018254,0.00048314,0.00039561,0.00248144,0.00218737,-0.00078535,-0
 .00582798,-0.01106277,-0.01019824,-0.00033332,0.00002632,-0.00064520,-
 0.00037509,-0.00020430,-0.00025278,-0.00110938,0.00006550,0.00042435,0
 .00016726,0.00001354,0.00020824,-0.10564712,-0.22398299,-0.23723178,0.
 00017528,0.00007619,0.00003996,-0.00004959,-0.00001288,0.00000856,0.11
 052257,0.23325215,0.00009261,0.00032796,0.00026819,-0.00005600,-0.0001
 1115,-0.00014439,0.00003122,-0.00005096,-0.00038133,-0.00025834,-0.000
 51668,-0.00136230,0.00798976,0.00974811,-0.00049367,-0.00024126,-0.000
 42922,0.00051653,-0.00005666,0.00002834,0.00024045,0.00130455,0.001391
 66,0.00068030,0.00017717,0.00011502,-0.00020113,-0.12398515,-0.2584251
 7,-0.28959214,0.00002485,-0.00000156,-0.00005973,0.00000609,0.00000385
 ,0.00000991,0.11497116,0.24791982,0.29051932\\-0.00003136,0.00004698,0
 .00002780,0.00000407,-0.00000669,0.00000700,-0.00001089,-0.00003927,-0
 .00001690,0.00001385,0.00002351,0.00002085,-0.00000039,-0.00002804,-0.
 00003064,0.00003983,-0.00001731,-0.00001379,-0.00001914,-0.00004981,-0
 .00002891,0.00001547,0.00002407,-0.00002999,-0.00000461,0.00001988,0.0
 0002509,-0.00002025,0.00000819,0.00002420,0.00000926,0.00002090,0.0000
 2923,-0.00000601,-0.00000186,-0.00000959,0.00001017,-0.00000056,-0.000
 00436\\\@
 The archive entry for this job was punched.


 THERE'S SMALL CHOICE IN A BOWL OF ROTTEN APPLES.
                     SHAKESPEARE
 Job cpu time:       0 days  2 hours 57 minutes 32.4 seconds.
 Elapsed time:       0 days  0 hours  2 minutes 48.2 seconds.
 File lengths (MBytes):  RWF=    139 Int=      0 D2E=      0 Chk=      8 Scr=      1
 Normal termination of Gaussian 16 at Wed Jul  2 10:45:39 2025.
