 Entering Gaussian System, Link 0=g16
 Initial command:
 /home/g16/g16/l1.exe "/home/xiong/AlLi/Gau-24649.inp" -scrdir="/home/xiong/AlLi/"
 Entering Link 1 = /home/g16/g16/l1.exe PID=     24650.
  
 Copyright (c) 1988-2019, Gaussian, Inc.  All Rights Reserved.
  
 This is part of the Gaussian(R) 16 program.  It is based on
 the Gaussian(R) 09 system (copyright 2009, Gaussian, Inc.),
 the Gaussian(R) 03 system (copyright 2003, Gaussian, Inc.),
 the Gaussian(R) 98 system (copyright 1998, Gaussian, Inc.),
 the Gaussian(R) 94 system (copyright 1995, Gaussian, Inc.),
 the Gaussian 92(TM) system (copyright 1992, Gaussian, Inc.),
 the Gaussian 90(TM) system (copyright 1990, Gaussian, Inc.),
 the Gaussian 88(TM) system (copyright 1988, Gaussian, Inc.),
 the Gaussian 86(TM) system (copyright 1986, Carnegie Mellon
 University), and the Gaussian 82(TM) system (copyright 1983,
 Carnegie Mellon University). Gaussian is a federally registered
 trademark of Gaussian, Inc.
  
 This software contains proprietary and confidential information,
 including trade secrets, belonging to Gaussian, Inc.
  
 This software is provided under written license and may be
 used, copied, transmitted, or stored only in accord with that
 written license.
  
 The following legend is applicable only to US Government
 contracts under FAR:
  
                    RESTRICTED RIGHTS LEGEND
  
 Use, reproduction and disclosure by the US Government is
 subject to restrictions as set forth in subparagraphs (a)
 and (c) of the Commercial Computer Software - Restricted
 Rights clause in FAR 52.227-19.
  
 Gaussian, Inc.
 340 Quinnipiac St., Bldg. 40, Wallingford CT 06492
  
  
 ---------------------------------------------------------------
 Warning -- This program may not be used in any manner that
 competes with the business of Gaussian, Inc. or will provide
 assistance to any competitor of Gaussian, Inc.  The licensee
 of this program is prohibited from giving any competitor of
 Gaussian, Inc. access to this program.  By using this program,
 the user acknowledges that Gaussian, Inc. is engaged in the
 business of creating and licensing software in the field of
 computational chemistry and represents and warrants to the
 licensee that it is not a competitor of Gaussian, Inc. and that
 it will not use this program in any manner prohibited above.
 ---------------------------------------------------------------
  

 Cite this work as:
 Gaussian 16, Revision C.01,
 M. J. Frisch, G. W. Trucks, H. B. Schlegel, G. E. Scuseria, 
 M. A. Robb, J. R. Cheeseman, G. Scalmani, V. Barone, 
 G. A. Petersson, H. Nakatsuji, X. Li, M. Caricato, A. V. Marenich, 
 J. Bloino, B. G. Janesko, R. Gomperts, B. Mennucci, H. P. Hratchian, 
 J. V. Ortiz, A. F. Izmaylov, J. L. Sonnenberg, D. Williams-Young, 
 F. Ding, F. Lipparini, F. Egidi, J. Goings, B. Peng, A. Petrone, 
 T. Henderson, D. Ranasinghe, V. G. Zakrzewski, J. Gao, N. Rega, 
 G. Zheng, W. Liang, M. Hada, M. Ehara, K. Toyota, R. Fukuda, 
 J. Hasegawa, M. Ishida, T. Nakajima, Y. Honda, O. Kitao, H. Nakai, 
 T. Vreven, K. Throssell, J. A. Montgomery, Jr., J. E. Peralta, 
 F. Ogliaro, M. J. Bearpark, J. J. Heyd, E. N. Brothers, K. N. Kudin, 
 V. N. Staroverov, T. A. Keith, R. Kobayashi, J. Normand, 
 K. Raghavachari, A. P. Rendell, J. C. Burant, S. S. Iyengar, 
 J. Tomasi, M. Cossi, J. M. Millam, M. Klene, C. Adamo, R. Cammi, 
 J. W. Ochterski, R. L. Martin, K. Morokuma, O. Farkas, 
 J. B. Foresman, and D. J. Fox, Gaussian, Inc., Wallingford CT, 2019.
 
 ******************************************
 Gaussian 16:  ES64L-G16RevC.01  3-Jul-2019
                 1-Jul-2025 
 ******************************************
 %chk=Al4O6.chk
 %mem=50GB
 %nprocshared=64
 Will use up to   64 processors via shared memory.
 ----------------------------
 # opt freq m062x/aug-cc-pvdz
 ----------------------------
 1/18=20,19=15,26=3,38=1/1,3;
 2/9=110,12=2,17=6,18=5,40=1/2;
 3/5=16,7=10,11=2,25=1,30=1,71=1,74=-55/1,2,3;
 4//1;
 5/5=2,38=5/2;
 6/7=2,8=2,9=2,10=2,28=1/1;
 7//1,2,3,16;
 1/18=20,19=15,26=3/3(2);
 2/9=110/2;
 99//99;
 2/9=110/2;
 3/5=16,7=10,11=2,25=1,30=1,71=1,74=-55/1,2,3;
 4/5=5,16=3,69=1/1;
 5/5=2,38=5/2;
 7//1,2,3,16;
 1/18=20,19=15,26=3/3(-5);
 2/9=110/2;
 6/7=2,8=2,9=2,10=2,19=2,28=1/1;
 99/9=1/99;
 -------------------
 Title Card Required
 -------------------
 Symbolic Z-matrix:
 Charge =  0 Multiplicity = 1
 Al                   0    -0.95214   0.95214   0.95214 
 O                    0     0.        2.04691   0. 
 O                    0    -2.04691   0.        0. 
 O                    0     0.        0.        2.04691 
 Al                   0     0.95214  -0.95214   0.95214 
 Al                   0    -0.95214  -0.95214  -0.95214 
 Al                   0     0.95214   0.95214  -0.95214 
 O                    0     0.       -2.04691   0. 
 O                    0     0.        0.       -2.04691 
 O                    0     2.04691   0.        0. 
 

 GradGradGradGradGradGradGradGradGradGradGradGradGradGradGradGradGradGrad
 Berny optimization.
 Initialization pass.
                           ----------------------------
                           !    Initial Parameters    !
                           ! (Angstroms and Degrees)  !
 --------------------------                            --------------------------
 ! Name  Definition              Value          Derivative Info.                !
 --------------------------------------------------------------------------------
 ! R1    R(1,2)                  1.7354         estimate D2E/DX2                !
 ! R2    R(1,3)                  1.7354         estimate D2E/DX2                !
 ! R3    R(1,4)                  1.7354         estimate D2E/DX2                !
 ! R4    R(1,5)                  2.6931         estimate D2E/DX2                !
 ! R5    R(1,6)                  2.6931         estimate D2E/DX2                !
 ! R6    R(1,7)                  2.6931         estimate D2E/DX2                !
 ! R7    R(2,7)                  1.7354         estimate D2E/DX2                !
 ! R8    R(3,6)                  1.7354         estimate D2E/DX2                !
 ! R9    R(4,5)                  1.7354         estimate D2E/DX2                !
 ! R10   R(5,6)                  2.6931         estimate D2E/DX2                !
 ! R11   R(5,7)                  2.6931         estimate D2E/DX2                !
 ! R12   R(5,8)                  1.7354         estimate D2E/DX2                !
 ! R13   R(5,10)                 1.7354         estimate D2E/DX2                !
 ! R14   R(6,7)                  2.6931         estimate D2E/DX2                !
 ! R15   R(6,8)                  1.7354         estimate D2E/DX2                !
 ! R16   R(6,9)                  1.7354         estimate D2E/DX2                !
 ! R17   R(7,9)                  1.7354         estimate D2E/DX2                !
 ! R18   R(7,10)                 1.7354         estimate D2E/DX2                !
 ! A1    A(2,1,3)              113.0295         estimate D2E/DX2                !
 ! A2    A(2,1,4)              113.0295         estimate D2E/DX2                !
 ! A3    A(2,1,5)               93.3317         estimate D2E/DX2                !
 ! A4    A(2,1,6)               93.3317         estimate D2E/DX2                !
 ! A5    A(3,1,4)              113.0295         estimate D2E/DX2                !
 ! A6    A(3,1,5)               93.3317         estimate D2E/DX2                !
 ! A7    A(3,1,7)               93.3317         estimate D2E/DX2                !
 ! A8    A(4,1,6)               93.3317         estimate D2E/DX2                !
 ! A9    A(4,1,7)               93.3317         estimate D2E/DX2                !
 ! A10   A(1,5,8)               93.3317         estimate D2E/DX2                !
 ! A11   A(1,5,10)              93.3317         estimate D2E/DX2                !
 ! A12   A(4,5,6)               93.3317         estimate D2E/DX2                !
 ! A13   A(4,5,7)               93.3317         estimate D2E/DX2                !
 ! A14   A(4,5,8)              113.0295         estimate D2E/DX2                !
 ! A15   A(4,5,10)             113.0295         estimate D2E/DX2                !
 ! A16   A(6,5,10)              93.3317         estimate D2E/DX2                !
 ! A17   A(7,5,8)               93.3317         estimate D2E/DX2                !
 ! A18   A(8,5,10)             113.0295         estimate D2E/DX2                !
 ! A19   A(1,6,8)               93.3317         estimate D2E/DX2                !
 ! A20   A(1,6,9)               93.3317         estimate D2E/DX2                !
 ! A21   A(3,6,5)               93.3317         estimate D2E/DX2                !
 ! A22   A(3,6,7)               93.3317         estimate D2E/DX2                !
 ! A23   A(3,6,8)              113.0295         estimate D2E/DX2                !
 ! A24   A(3,6,9)              113.0295         estimate D2E/DX2                !
 ! A25   A(5,6,9)               93.3317         estimate D2E/DX2                !
 ! A26   A(7,6,8)               93.3317         estimate D2E/DX2                !
 ! A27   A(8,6,9)              113.0295         estimate D2E/DX2                !
 ! A28   A(1,7,9)               93.3317         estimate D2E/DX2                !
 ! A29   A(1,7,10)              93.3317         estimate D2E/DX2                !
 ! A30   A(2,7,5)               93.3317         estimate D2E/DX2                !
 ! A31   A(2,7,6)               93.3317         estimate D2E/DX2                !
 ! A32   A(2,7,9)              113.0295         estimate D2E/DX2                !
 ! A33   A(2,7,10)             113.0295         estimate D2E/DX2                !
 ! A34   A(5,7,9)               93.3317         estimate D2E/DX2                !
 ! A35   A(6,7,10)              93.3317         estimate D2E/DX2                !
 ! A36   A(9,7,10)             113.0295         estimate D2E/DX2                !
 ! D1    D(2,1,5,8)           -113.3234         estimate D2E/DX2                !
 ! D2    D(2,1,5,10)             0.0            estimate D2E/DX2                !
 ! D3    D(3,1,5,8)              0.0            estimate D2E/DX2                !
 ! D4    D(3,1,5,10)           113.3234         estimate D2E/DX2                !
 ! D5    D(2,1,6,8)            113.3234         estimate D2E/DX2                !
 ! D6    D(2,1,6,9)              0.0            estimate D2E/DX2                !
 ! D7    D(4,1,6,8)              0.0            estimate D2E/DX2                !
 ! D8    D(4,1,6,9)           -113.3234         estimate D2E/DX2                !
 ! D9    D(3,1,7,9)              0.0            estimate D2E/DX2                !
 ! D10   D(3,1,7,10)          -113.3234         estimate D2E/DX2                !
 ! D11   D(4,1,7,9)            113.3234         estimate D2E/DX2                !
 ! D12   D(4,1,7,10)             0.0            estimate D2E/DX2                !
 ! D13   D(4,5,6,3)              0.0            estimate D2E/DX2                !
 ! D14   D(4,5,6,9)            113.3234         estimate D2E/DX2                !
 ! D15   D(10,5,6,3)          -113.3234         estimate D2E/DX2                !
 ! D16   D(10,5,6,9)             0.0            estimate D2E/DX2                !
 ! D17   D(4,5,7,2)              0.0            estimate D2E/DX2                !
 ! D18   D(4,5,7,9)           -113.3234         estimate D2E/DX2                !
 ! D19   D(8,5,7,2)            113.3234         estimate D2E/DX2                !
 ! D20   D(8,5,7,9)              0.0            estimate D2E/DX2                !
 ! D21   D(3,6,7,2)              0.0            estimate D2E/DX2                !
 ! D22   D(3,6,7,10)           113.3234         estimate D2E/DX2                !
 ! D23   D(8,6,7,2)           -113.3234         estimate D2E/DX2                !
 ! D24   D(8,6,7,10)             0.0            estimate D2E/DX2                !
 --------------------------------------------------------------------------------
 Trust Radius=3.00D-01 FncErr=1.00D-07 GrdErr=1.00D-06 EigMax=2.50D+02 EigMin=1.00D-04
 Number of steps in this run=     88 maximum allowed number of steps=    100.
 GradGradGradGradGradGradGradGradGradGradGradGradGradGradGradGradGradGrad

                          Input orientation:                          
 ---------------------------------------------------------------------
 Center     Atomic      Atomic             Coordinates (Angstroms)
 Number     Number       Type             X           Y           Z
 ---------------------------------------------------------------------
      1         13           0       -0.952141    0.952141    0.952141
      2          8           0        0.000000    2.046913    0.000000
      3          8           0       -2.046913    0.000000    0.000000
      4          8           0        0.000000    0.000000    2.046913
      5         13           0        0.952141   -0.952141    0.952141
      6         13           0       -0.952141   -0.952141   -0.952141
      7         13           0        0.952141    0.952141   -0.952141
      8          8           0        0.000000   -2.046913    0.000000
      9          8           0        0.000000    0.000000   -2.046913
     10          8           0        2.046913    0.000000    0.000000
 ---------------------------------------------------------------------
                    Distance matrix (angstroms):
                    1          2          3          4          5
     1  Al   0.000000
     2  O    1.735416   0.000000
     3  O    1.735416   2.894772   0.000000
     4  O    1.735416   2.894772   2.894772   0.000000
     5  Al   2.693061   3.287471   3.287471   1.735416   0.000000
     6  Al   2.693061   3.287471   1.735416   3.287471   2.693061
     7  Al   2.693061   1.735416   3.287471   3.287471   2.693061
     8  O    3.287471   4.093826   2.894772   2.894772   1.735416
     9  O    3.287471   2.894772   2.894772   4.093826   3.287471
    10  O    3.287471   2.894772   4.093826   2.894772   1.735416
                    6          7          8          9         10
     6  Al   0.000000
     7  Al   2.693061   0.000000
     8  O    1.735416   3.287471   0.000000
     9  O    1.735416   1.735416   2.894772   0.000000
    10  O    3.287471   1.735416   2.894772   2.894772   0.000000
 Stoichiometry    Al4O6
 Framework group  TD[4C3(Al),3C2(O.O)]
 Deg. of freedom     1
 Full point group                 TD      NOp  24
 Largest Abelian subgroup         D2      NOp   4
 Largest concise Abelian subgroup D2      NOp   4
                         Standard orientation:                         
 ---------------------------------------------------------------------
 Center     Atomic      Atomic             Coordinates (Angstroms)
 Number     Number       Type             X           Y           Z
 ---------------------------------------------------------------------
      1         13           0       -0.952141    0.952141    0.952141
      2          8           0        0.000000    2.046913    0.000000
      3          8           0       -2.046913    0.000000    0.000000
      4          8           0       -0.000000    0.000000    2.046913
      5         13           0        0.952141   -0.952141    0.952141
      6         13           0       -0.952141   -0.952141   -0.952141
      7         13           0        0.952141    0.952141   -0.952141
      8          8           0        0.000000   -2.046913    0.000000
      9          8           0       -0.000000   -0.000000   -2.046913
     10          8           0        2.046913   -0.000000    0.000000
 ---------------------------------------------------------------------
 Rotational constants (GHZ):           1.0897636           1.0897636           1.0897636
 Standard basis: Aug-CC-pVDZ (5D, 7F)
 There are    74 symmetry adapted cartesian basis functions of A   symmetry.
 There are    64 symmetry adapted cartesian basis functions of B1  symmetry.
 There are    64 symmetry adapted cartesian basis functions of B2  symmetry.
 There are    64 symmetry adapted cartesian basis functions of B3  symmetry.
 There are    66 symmetry adapted basis functions of A   symmetry.
 There are    60 symmetry adapted basis functions of B1  symmetry.
 There are    60 symmetry adapted basis functions of B2  symmetry.
 There are    60 symmetry adapted basis functions of B3  symmetry.
   246 basis functions,   578 primitive gaussians,   266 cartesian basis functions
    50 alpha electrons       50 beta electrons
       nuclear repulsion energy       945.8978294606 Hartrees.
 NAtoms=   10 NActive=   10 NUniq=    2 SFac= 4.00D+00 NAtFMM=   60 NAOKFM=F Big=F
 Integral buffers will be    131072 words long.
 Raffenetti 2 integral format.
 Two-electron integral symmetry is turned on.
 One-electron integrals computed using PRISM.
 NBasis=   246 RedAO= T EigKep=  2.00D-04  NBF=    66    60    60    60
 NBsUse=   246 1.00D-06 EigRej= -1.00D+00 NBFU=    66    60    60    60
 ExpMin= 1.53D-02 ExpMax= 6.42D+04 ExpMxC= 2.19D+03 IAcc=3 IRadAn=         5 AccDes= 0.00D+00
 Harris functional with IExCor= 1009 and IRadAn=       5 diagonalized for initial guess.
 HarFok:  IExCor= 1009 AccDes= 0.00D+00 IRadAn=         5 IDoV= 1 UseB2=F ITyADJ=14
 ICtDFT=  3500011 ScaDFX=  1.000000  1.000000  1.000000  1.000000
 FoFCou: FMM=F IPFlag=           0 FMFlag=      100000 FMFlg1=           0
         NFxFlg=           0 DoJE=T BraDBF=F KetDBF=T FulRan=T
         wScrn=  0.000000 ICntrl=       500 IOpCl=  0 I1Cent=   200000004 NGrid=           0
         NMat0=    1 NMatS0=      1 NMatT0=    0 NMatD0=    1 NMtDS0=    0 NMtDT0=    0
 Petite list used in FoFCou.
 Initial guess orbital symmetries:
       Occupied  (T2) (T2) (T2) (A1) (E) (E) (T2) (T2) (T2) (A1)
                 (T2) (T2) (T2) (A1) (E) (E) (T2) (T2) (T2) (T1)
                 (T1) (T1) (A1) (T2) (T2) (T2) (A1) (T2) (T2) (T2)
                 (E) (E) (A1) (T2) (T2) (T2) (T1) (T1) (T1) (T2)
                 (T2) (T2) (E) (E) (T2) (T2) (T2) (T1) (T1) (T1)
       Virtual   (A1) (A1) (T2) (T2) (T2) (T2) (T2) (T2) (E) (E)
                 (A1) (T2) (T2) (T2) (T1) (T1) (T1) (A1) (E) (E)
                 (T2) (T2) (T2) (T1) (T1) (T1) (T2) (T2) (T2) (T2)
                 (T2) (T2) (A1) (T2) (T2) (T2) (E) (E) (T2) (T2)
                 (T2) (T1) (T1) (T1) (A1) (E) (E) (T1) (T1) (T1)
                 (T2) (T2) (T2) (T2) (T2) (T2) (E) (E) (A1) (T1)
                 (T1) (T1) (T2) (T2) (T2) (T2) (T2) (T2) (A1) (T2)
                 (T2) (T2) (T1) (T1) (T1) (T2) (T2) (T2) (T2) (T2)
                 (T2) (E) (E) (E) (E) (T1) (T1) (T1) (T2) (T2)
                 (T2) (E) (E) (T1) (T1) (T1) (A1) (T2) (T2) (T2)
                 (T2) (T2) (T2) (E) (E) (A1) (T1) (T1) (T1) (A2)
                 (E) (E) (T2) (T2) (T2) (T2) (T2) (T2) (T1) (T1)
                 (T1) (T1) (T1) (T1) (T2) (T2) (T2) (T1) (T1) (T1)
                 (A1) (E) (E) (T2) (T2) (T2) (T2) (T2) (T2) (T1)
                 (T1) (T1) (E) (E) (A1) (T2) (T2) (T2) (E) (E)
                 (A1) (T2) (T2) (T2) (T1) (T1) (T1) (T2) (T2) (T2)
                 (A1) (T2) (T2) (T2) (E) (E) (A2) (E) (E) (T2)
                 (T2) (T2) (A1) (T1) (T1) (T1) (T2) (T2) (T2) (A1)
                 (T2) (T2) (T2) (E) (E) (T1) (T1) (T1) (T1) (T1)
                 (T1) (T2) (T2) (T2) (E) (E)
 The electronic state of the initial guess is 1-A1.
 Keep R1 ints in memory in symmetry-blocked form, NReq=576986205.
 Requested convergence on RMS density matrix=1.00D-08 within 128 cycles.
 Requested convergence on MAX density matrix=1.00D-06.
 Requested convergence on             energy=1.00D-06.
 No special actions if energy rises.
 SCF Done:  E(RM062X) =  -1421.41438306     A.U. after   10 cycles
            NFock= 10  Conv=0.27D-08     -V/T= 2.0040

 **********************************************************************

            Population analysis using the SCF Density.

 **********************************************************************

 Orbital symmetries:
       Occupied  (T2) (T2) (T2) (A1) (E) (E) (T2) (T2) (T2) (A1)
                 (A1) (T2) (T2) (T2) (A1) (T2) (T2) (T2) (E) (E)
                 (T2) (T2) (T2) (T1) (T1) (T1) (A1) (T2) (T2) (T2)
                 (E) (E) (A1) (T2) (T2) (T2) (T1) (T1) (T1) (T2)
                 (T2) (T2) (T2) (T2) (T2) (E) (E) (T1) (T1) (T1)
       Virtual   (A1) (T2) (T2) (T2) (A1) (T2) (T2) (T2) (E) (E)
                 (T2) (T2) (T2) (A1) (T1) (T1) (T1) (A1) (T2) (T2)
                 (T2) (E) (E) (T2) (T2) (T2) (A1) (T1) (T1) (T1)
                 (T2) (T2) (T2) (T2) (T2) (T2) (E) (E) (T1) (T1)
                 (T1) (A1) (E) (E) (T2) (T2) (T2) (T1) (T1) (T1)
                 (T2) (T2) (T2) (E) (E) (T2) (T2) (T2) (T1) (T1)
                 (T1) (A1) (T2) (T2) (T2) (T2) (T2) (T2) (T2) (T2)
                 (T2) (A1) (T1) (T1) (T1) (T2) (T2) (T2) (E) (E)
                 (T2) (T2) (T2) (T1) (T1) (T1) (E) (E) (T2) (T2)
                 (T2) (E) (E) (T1) (T1) (T1) (A1) (T2) (T2) (T2)
                 (T2) (T2) (T2) (A1) (E) (E) (T1) (T1) (T1) (T2)
                 (T2) (T2) (A2) (E) (E) (T2) (T2) (T2) (T1) (T1)
                 (T1) (T1) (T1) (T1) (T2) (T2) (T2) (T1) (T1) (T1)
                 (A1) (E) (E) (T2) (T2) (T2) (T2) (T2) (T2) (E)
                 (E) (T1) (T1) (T1) (A1) (T2) (T2) (T2) (A1) (E)
                 (E) (T2) (T2) (T2) (T1) (T1) (T1) (T2) (T2) (T2)
                 (A1) (T2) (T2) (T2) (E) (E) (A2) (E) (E) (T2)
                 (T2) (T2) (A1) (T1) (T1) (T1) (T2) (T2) (T2) (T2)
                 (T2) (T2) (E) (E) (A1) (T1) (T1) (T1) (T1) (T1)
                 (T1) (T2) (T2) (T2) (E) (E)
 The electronic state is 1-A1.
 Alpha  occ. eigenvalues --  -56.90919 -56.90919 -56.90919 -56.90918 -19.61514
 Alpha  occ. eigenvalues --  -19.61514 -19.61513 -19.61513 -19.61513 -19.61512
 Alpha  occ. eigenvalues --   -4.41825  -4.41822  -4.41822  -4.41822  -2.92374
 Alpha  occ. eigenvalues --   -2.92314  -2.92314  -2.92314  -2.91740  -2.91740
 Alpha  occ. eigenvalues --   -2.91732  -2.91732  -2.91732  -2.91704  -2.91704
 Alpha  occ. eigenvalues --   -2.91704  -1.07642  -1.04507  -1.04507  -1.04507
 Alpha  occ. eigenvalues --   -1.03039  -1.03039  -0.52243  -0.51018  -0.51018
 Alpha  occ. eigenvalues --   -0.51018  -0.44615  -0.44615  -0.44615  -0.44395
 Alpha  occ. eigenvalues --   -0.44395  -0.44395  -0.38616  -0.38616  -0.38616
 Alpha  occ. eigenvalues --   -0.38599  -0.38599  -0.35630  -0.35630  -0.35630
 Alpha virt. eigenvalues --   -0.10210  -0.04521  -0.04521  -0.04521   0.00440
 Alpha virt. eigenvalues --    0.01428   0.01428   0.01428   0.02280   0.02280
 Alpha virt. eigenvalues --    0.02457   0.02457   0.02457   0.03235   0.04123
 Alpha virt. eigenvalues --    0.04123   0.04123   0.07636   0.08790   0.08790
 Alpha virt. eigenvalues --    0.08790   0.09721   0.09721   0.11508   0.11508
 Alpha virt. eigenvalues --    0.11508   0.11941   0.12021   0.12021   0.12021
 Alpha virt. eigenvalues --    0.12104   0.12104   0.12104   0.16174   0.16174
 Alpha virt. eigenvalues --    0.16174   0.16616   0.16616   0.17271   0.17271
 Alpha virt. eigenvalues --    0.17271   0.21585   0.21929   0.21929   0.24772
 Alpha virt. eigenvalues --    0.24772   0.24772   0.25724   0.25724   0.25724
 Alpha virt. eigenvalues --    0.26566   0.26566   0.26566   0.27335   0.27335
 Alpha virt. eigenvalues --    0.28784   0.28784   0.28784   0.31168   0.31168
 Alpha virt. eigenvalues --    0.31168   0.31312   0.33013   0.33013   0.33013
 Alpha virt. eigenvalues --    0.35853   0.35853   0.35853   0.38251   0.38251
 Alpha virt. eigenvalues --    0.38251   0.39081   0.39317   0.39317   0.39317
 Alpha virt. eigenvalues --    0.43652   0.43652   0.43652   0.47241   0.47241
 Alpha virt. eigenvalues --    0.47434   0.47434   0.47434   0.51184   0.51184
 Alpha virt. eigenvalues --    0.51184   0.51451   0.51451   0.53813   0.53813
 Alpha virt. eigenvalues --    0.53813   0.55906   0.55906   0.59585   0.59585
 Alpha virt. eigenvalues --    0.59585   0.62312   0.64193   0.64193   0.64193
 Alpha virt. eigenvalues --    0.73772   0.73772   0.73772   0.78785   0.82137
 Alpha virt. eigenvalues --    0.82137   0.86408   0.86408   0.86408   0.93051
 Alpha virt. eigenvalues --    0.93051   0.93051   0.93243   0.95925   0.95925
 Alpha virt. eigenvalues --    1.02028   1.02028   1.02028   1.10175   1.10175
 Alpha virt. eigenvalues --    1.10175   1.14102   1.14102   1.14102   1.16931
 Alpha virt. eigenvalues --    1.16931   1.16931   1.18261   1.18261   1.18261
 Alpha virt. eigenvalues --    1.18384   1.18871   1.18871   1.29681   1.29681
 Alpha virt. eigenvalues --    1.29681   1.42546   1.42546   1.42546   1.47333
 Alpha virt. eigenvalues --    1.47333   1.51906   1.51906   1.51906   1.58617
 Alpha virt. eigenvalues --    1.63050   1.63050   1.63050   1.63374   1.67378
 Alpha virt. eigenvalues --    1.67378   1.77010   1.77010   1.77010   1.89858
 Alpha virt. eigenvalues --    1.89858   1.89858   2.12145   2.12145   2.12145
 Alpha virt. eigenvalues --    2.47261   2.48000   2.48000   2.48000   2.48105
 Alpha virt. eigenvalues --    2.48105   3.39917   3.40558   3.40558   3.42574
 Alpha virt. eigenvalues --    3.42574   3.42574   3.42964   3.47203   3.47203
 Alpha virt. eigenvalues --    3.47203   3.48796   3.48796   3.48796   3.49523
 Alpha virt. eigenvalues --    3.49523   3.49523   3.50894   3.50894   3.51082
 Alpha virt. eigenvalues --    3.52654   3.52654   3.52654   3.58365   3.58365
 Alpha virt. eigenvalues --    3.58365   3.58947   3.58947   3.58947   3.62026
 Alpha virt. eigenvalues --    3.62026
          Condensed to atoms (all electrons):
               1          2          3          4          5          6
     1  Al  11.517126   0.003014   0.003014   0.003014  -0.199240  -0.199240
     2  O    0.003014   8.776052   0.067912   0.067912   0.082879   0.082879
     3  O    0.003014   0.067912   8.776052   0.067912   0.082879   0.003014
     4  O    0.003014   0.067912   0.067912   8.776052   0.003014   0.082879
     5  Al  -0.199240   0.082879   0.082879   0.003014  11.517126  -0.199240
     6  Al  -0.199240   0.082879   0.003014   0.082879  -0.199240  11.517126
     7  Al  -0.199240   0.003014   0.082879   0.082879  -0.199240  -0.199240
     8  O    0.082879  -0.004208   0.067912   0.067912   0.003014   0.003014
     9  O    0.082879   0.067912   0.067912  -0.004208   0.082879   0.003014
    10  O    0.082879   0.067912  -0.004208   0.067912   0.003014   0.082879
               7          8          9         10
     1  Al  -0.199240   0.082879   0.082879   0.082879
     2  O    0.003014  -0.004208   0.067912   0.067912
     3  O    0.082879   0.067912   0.067912  -0.004208
     4  O    0.082879   0.067912  -0.004208   0.067912
     5  Al  -0.199240   0.003014   0.082879   0.003014
     6  Al  -0.199240   0.003014   0.003014   0.082879
     7  Al  11.517126   0.082879   0.003014   0.003014
     8  O    0.082879   8.776052   0.067912   0.067912
     9  O    0.003014   0.067912   8.776052   0.067912
    10  O    0.003014   0.067912   0.067912   8.776052
 Mulliken charges:
               1
     1  Al   1.822916
     2  O   -1.215277
     3  O   -1.215277
     4  O   -1.215277
     5  Al   1.822916
     6  Al   1.822916
     7  Al   1.822916
     8  O   -1.215277
     9  O   -1.215277
    10  O   -1.215277
 Sum of Mulliken charges =   0.00000
 Mulliken charges with hydrogens summed into heavy atoms:
               1
     1  Al   1.822916
     2  O   -1.215277
     3  O   -1.215277
     4  O   -1.215277
     5  Al   1.822916
     6  Al   1.822916
     7  Al   1.822916
     8  O   -1.215277
     9  O   -1.215277
    10  O   -1.215277
 Electronic spatial extent (au):  <R**2>=           1383.8762
 Charge=              0.0000 electrons
 Dipole moment (field-independent basis, Debye):
    X=             -0.0000    Y=              0.0000    Z=             -0.0000  Tot=              0.0000
 Quadrupole moment (field-independent basis, Debye-Ang):
   XX=            -72.0267   YY=            -72.0267   ZZ=            -72.0267
   XY=              0.0000   XZ=             -0.0000   YZ=             -0.0000
 Traceless Quadrupole moment (field-independent basis, Debye-Ang):
   XX=              0.0000   YY=              0.0000   ZZ=             -0.0000
   XY=              0.0000   XZ=             -0.0000   YZ=             -0.0000
 Octapole moment (field-independent basis, Debye-Ang**2):
  XXX=             -0.0000  YYY=              0.0000  ZZZ=             -0.0000  XYY=             -0.0000
  XXY=             -0.0000  XXZ=             -0.0000  XZZ=              0.0000  YZZ=              0.0000
  YYZ=             -0.0000  XYZ=            -37.0163
 Hexadecapole moment (field-independent basis, Debye-Ang**3):
 XXXX=           -646.9253 YYYY=           -646.9253 ZZZZ=           -646.9253 XXXY=              0.0000
 XXXZ=             -0.0000 YYYX=              0.0000 YYYZ=             -0.0000 ZZZX=             -0.0000
 ZZZY=             -0.0000 XXYY=           -142.2991 XXZZ=           -142.2991 YYZZ=           -142.2991
 XXYZ=             -0.0000 YYXZ=             -0.0000 ZZXY=             -0.0000
 N-N= 9.458978294606D+02 E-N=-5.276696121624D+03  KE= 1.415747753521D+03
 Symmetry A    KE= 4.438287848707D+02
 Symmetry B1   KE= 3.239729895503D+02
 Symmetry B2   KE= 3.239729895503D+02
 Symmetry B3   KE= 3.239729895503D+02
 Calling FoFJK, ICntrl=      2127 FMM=F ISym2X=1 I1Cent= 0 IOpClX= 0 NMat=1 NMatS=1 NMatT=0.
 ***** Axes restored to original set *****
 -------------------------------------------------------------------
 Center     Atomic                   Forces (Hartrees/Bohr)
 Number     Number              X              Y              Z
 -------------------------------------------------------------------
      1       13          -0.000213257    0.000213257    0.000213257
      2        8           0.000000000    0.008141043    0.000000000
      3        8          -0.008141043   -0.000000000    0.000000000
      4        8          -0.000000000   -0.000000000    0.008141043
      5       13           0.000213257   -0.000213257    0.000213257
      6       13          -0.000213257   -0.000213257   -0.000213257
      7       13           0.000213257    0.000213257   -0.000213257
      8        8          -0.000000000   -0.008141043   -0.000000000
      9        8           0.000000000    0.000000000   -0.008141043
     10        8           0.008141043   -0.000000000    0.000000000
 -------------------------------------------------------------------
 Cartesian Forces:  Max     0.008141043 RMS     0.003643282

 GradGradGradGradGradGradGradGradGradGradGradGradGradGradGradGradGradGrad
 Berny optimization.
 FormGI is forming the generalized inverse of G from B-inverse, IUseBI=4.
 Internal  Forces:  Max     0.004539185 RMS     0.002105169
 Search for a local minimum.
 Step number   1 out of a maximum of   88
 All quantities printed in internal units (Hartrees-Bohrs-Radians)
 Mixed Optimization -- RFO/linear search
 Second derivative matrix not updated -- first step.
 ITU=  0
     Eigenvalues ---    0.06573   0.06573   0.06573   0.08968   0.11946
     Eigenvalues ---    0.11946   0.11946   0.14387   0.14387   0.14387
     Eigenvalues ---    0.14653   0.14653   0.25711   0.25711   0.27883
     Eigenvalues ---    0.29352   0.29352   0.29352   0.29858   0.29858
     Eigenvalues ---    0.29858   0.31061   0.31061   0.31061
 RFO step:  Lambda=-1.25676445D-03 EMin= 6.57280851D-02
 Linear search not attempted -- first point.
 Iteration  1 RMS(Cart)=  0.00715902 RMS(Int)=  0.00004648
 Iteration  2 RMS(Cart)=  0.00000923 RMS(Int)=  0.00004220
 Iteration  3 RMS(Cart)=  0.00000000 RMS(Int)=  0.00004220
 ClnCor:  largest displacement from symmetrization is 3.58D-09 for atom     4.
 Variable       Old X    -DE/DX   Delta X   Delta X   Delta X     New X
                                 (Linear)    (Quad)   (Total)
    R1        3.27946   0.00454   0.00000   0.01579   0.01583   3.29530
    R2        3.27946   0.00454   0.00000   0.01579   0.01583   3.29530
    R3        3.27946   0.00454   0.00000   0.01579   0.01583   3.29530
    R4        5.08915   0.00049   0.00000  -0.00290  -0.00296   5.08618
    R5        5.08915   0.00049   0.00000  -0.00290  -0.00296   5.08618
    R6        5.08915   0.00049   0.00000  -0.00290  -0.00296   5.08618
    R7        3.27946   0.00454   0.00000   0.01579   0.01583   3.29530
    R8        3.27946   0.00454   0.00000   0.01579   0.01583   3.29530
    R9        3.27946   0.00454   0.00000   0.01579   0.01583   3.29530
   R10        5.08915   0.00049   0.00000  -0.00290  -0.00296   5.08618
   R11        5.08915   0.00049   0.00000  -0.00290  -0.00296   5.08618
   R12        3.27946   0.00454   0.00000   0.01579   0.01583   3.29530
   R13        3.27946   0.00454   0.00000   0.01579   0.01583   3.29530
   R14        5.08915   0.00049   0.00000  -0.00290  -0.00296   5.08618
   R15        3.27946   0.00454   0.00000   0.01579   0.01583   3.29530
   R16        3.27946   0.00454   0.00000   0.01579   0.01583   3.29530
   R17        3.27946   0.00454   0.00000   0.01579   0.01583   3.29530
   R18        3.27946   0.00454   0.00000   0.01579   0.01583   3.29530
    A1        1.97274   0.00134   0.00000   0.00560   0.00552   1.97826
    A2        1.97274   0.00134   0.00000   0.00560   0.00552   1.97826
    A3        1.62895   0.00137   0.00000   0.00573   0.00571   1.63465
    A4        1.62895   0.00137   0.00000   0.00573   0.00571   1.63465
    A5        1.97274   0.00134   0.00000   0.00560   0.00552   1.97826
    A6        1.62895   0.00137   0.00000   0.00573   0.00571   1.63465
    A7        1.62895   0.00137   0.00000   0.00573   0.00571   1.63465
    A8        1.62895   0.00137   0.00000   0.00573   0.00571   1.63465
    A9        1.62895   0.00137   0.00000   0.00573   0.00571   1.63465
   A10        1.62895   0.00137   0.00000   0.00573   0.00571   1.63465
   A11        1.62895   0.00137   0.00000   0.00573   0.00571   1.63465
   A12        1.62895   0.00137   0.00000   0.00573   0.00571   1.63465
   A13        1.62895   0.00137   0.00000   0.00573   0.00571   1.63465
   A14        1.97274   0.00134   0.00000   0.00560   0.00552   1.97826
   A15        1.97274   0.00134   0.00000   0.00560   0.00552   1.97826
   A16        1.62895   0.00137   0.00000   0.00573   0.00571   1.63465
   A17        1.62895   0.00137   0.00000   0.00573   0.00571   1.63465
   A18        1.97274   0.00134   0.00000   0.00560   0.00552   1.97826
   A19        1.62895   0.00137   0.00000   0.00573   0.00571   1.63465
   A20        1.62895   0.00137   0.00000   0.00573   0.00571   1.63465
   A21        1.62895   0.00137   0.00000   0.00573   0.00571   1.63465
   A22        1.62895   0.00137   0.00000   0.00573   0.00571   1.63465
   A23        1.97274   0.00134   0.00000   0.00560   0.00552   1.97826
   A24        1.97274   0.00134   0.00000   0.00560   0.00552   1.97826
   A25        1.62895   0.00137   0.00000   0.00573   0.00571   1.63465
   A26        1.62895   0.00137   0.00000   0.00573   0.00571   1.63465
   A27        1.97274   0.00134   0.00000   0.00560   0.00552   1.97826
   A28        1.62895   0.00137   0.00000   0.00573   0.00571   1.63465
   A29        1.62895   0.00137   0.00000   0.00573   0.00571   1.63465
   A30        1.62895   0.00137   0.00000   0.00573   0.00571   1.63465
   A31        1.62895   0.00137   0.00000   0.00573   0.00571   1.63465
   A32        1.97274   0.00134   0.00000   0.00560   0.00552   1.97826
   A33        1.97274   0.00134   0.00000   0.00560   0.00552   1.97826
   A34        1.62895   0.00137   0.00000   0.00573   0.00571   1.63465
   A35        1.62895   0.00137   0.00000   0.00573   0.00571   1.63465
   A36        1.97274   0.00134   0.00000   0.00560   0.00552   1.97826
    D1       -1.97787  -0.00159   0.00000  -0.00664  -0.00662  -1.98449
    D2        0.00000   0.00000   0.00000  -0.00000   0.00000   0.00000
    D3       -0.00000   0.00000   0.00000  -0.00000   0.00000   0.00000
    D4        1.97787   0.00159   0.00000   0.00664   0.00662   1.98449
    D5        1.97787   0.00159   0.00000   0.00664   0.00662   1.98449
    D6       -0.00000  -0.00000   0.00000  -0.00000   0.00000   0.00000
    D7       -0.00000   0.00000   0.00000   0.00000   0.00000   0.00000
    D8       -1.97787  -0.00159   0.00000  -0.00664  -0.00662  -1.98449
    D9       -0.00000  -0.00000   0.00000  -0.00000   0.00000   0.00000
   D10       -1.97787  -0.00159   0.00000  -0.00664  -0.00662  -1.98449
   D11        1.97787   0.00159   0.00000   0.00664   0.00662   1.98449
   D12        0.00000   0.00000   0.00000   0.00000   0.00000   0.00000
   D13        0.00000  -0.00000   0.00000  -0.00000   0.00000   0.00000
   D14        1.97787   0.00159   0.00000   0.00664   0.00662   1.98449
   D15       -1.97787  -0.00159   0.00000  -0.00664  -0.00662  -1.98449
   D16        0.00000  -0.00000   0.00000  -0.00000   0.00000   0.00000
   D17       -0.00000   0.00000   0.00000  -0.00000   0.00000   0.00000
   D18       -1.97787  -0.00159   0.00000  -0.00664  -0.00662  -1.98449
   D19        1.97787   0.00159   0.00000   0.00664   0.00662   1.98449
   D20       -0.00000  -0.00000   0.00000  -0.00000   0.00000   0.00000
   D21        0.00000   0.00000   0.00000   0.00000   0.00000   0.00000
   D22        1.97787   0.00159   0.00000   0.00664   0.00662   1.98449
   D23       -1.97787  -0.00159   0.00000  -0.00664  -0.00662  -1.98449
   D24        0.00000   0.00000   0.00000   0.00000   0.00000   0.00000
         Item               Value     Threshold  Converged?
 Maximum Force            0.004539     0.000450     NO 
 RMS     Force            0.002105     0.000300     NO 
 Maximum Displacement     0.025760     0.001800     NO 
 RMS     Displacement     0.007156     0.001200     NO 
 Predicted change in Energy=-6.304464D-04
 GradGradGradGradGradGradGradGradGradGradGradGradGradGradGradGradGradGrad

                          Input orientation:                          
 ---------------------------------------------------------------------
 Center     Atomic      Atomic             Coordinates (Angstroms)
 Number     Number       Type             X           Y           Z
 ---------------------------------------------------------------------
      1         13           0       -0.951586    0.951586    0.951586
      2          8           0        0.000000    2.060544    0.000000
      3          8           0       -2.060544    0.000000    0.000000
      4          8           0       -0.000000    0.000000    2.060544
      5         13           0        0.951586   -0.951586    0.951586
      6         13           0       -0.951586   -0.951586   -0.951586
      7         13           0        0.951586    0.951586   -0.951586
      8          8           0       -0.000000   -2.060544    0.000000
      9          8           0       -0.000000   -0.000000   -2.060544
     10          8           0        2.060544   -0.000000    0.000000
 ---------------------------------------------------------------------
                    Distance matrix (angstroms):
                    1          2          3          4          5
     1  Al   0.000000
     2  O    1.743795   0.000000
     3  O    1.743795   2.914050   0.000000
     4  O    1.743795   2.914050   2.914050   0.000000
     5  Al   2.691493   3.299085   3.299085   1.743795   0.000000
     6  Al   2.691493   3.299085   1.743795   3.299085   2.691493
     7  Al   2.691493   1.743795   3.299085   3.299085   2.691493
     8  O    3.299085   4.121089   2.914050   2.914050   1.743795
     9  O    3.299085   2.914050   2.914050   4.121089   3.299085
    10  O    3.299085   2.914050   4.121089   2.914050   1.743795
                    6          7          8          9         10
     6  Al   0.000000
     7  Al   2.691493   0.000000
     8  O    1.743795   3.299085   0.000000
     9  O    1.743795   1.743795   2.914050   0.000000
    10  O    3.299085   1.743795   2.914050   2.914050   0.000000
 Stoichiometry    Al4O6
 Framework group  TD[4C3(Al),3C2(O.O)]
 Deg. of freedom     1
 Full point group                 TD      NOp  24
 Largest Abelian subgroup         D2      NOp   4
 Largest concise Abelian subgroup D2      NOp   4
                         Standard orientation:                         
 ---------------------------------------------------------------------
 Center     Atomic      Atomic             Coordinates (Angstroms)
 Number     Number       Type             X           Y           Z
 ---------------------------------------------------------------------
      1         13           0       -0.951586    0.951586    0.951586
      2          8           0        0.000000    2.060544    0.000000
      3          8           0       -2.060544    0.000000    0.000000
      4          8           0       -0.000000    0.000000    2.060544
      5         13           0        0.951586   -0.951586    0.951586
      6         13           0       -0.951586   -0.951586   -0.951586
      7         13           0        0.951586    0.951586   -0.951586
      8          8           0        0.000000   -2.060544    0.000000
      9          8           0       -0.000000   -0.000000   -2.060544
     10          8           0        2.060544   -0.000000    0.000000
 ---------------------------------------------------------------------
 Rotational constants (GHZ):           1.0819377           1.0819377           1.0819377
 Standard basis: Aug-CC-pVDZ (5D, 7F)
 There are    74 symmetry adapted cartesian basis functions of A   symmetry.
 There are    64 symmetry adapted cartesian basis functions of B1  symmetry.
 There are    64 symmetry adapted cartesian basis functions of B2  symmetry.
 There are    64 symmetry adapted cartesian basis functions of B3  symmetry.
 There are    66 symmetry adapted basis functions of A   symmetry.
 There are    60 symmetry adapted basis functions of B1  symmetry.
 There are    60 symmetry adapted basis functions of B2  symmetry.
 There are    60 symmetry adapted basis functions of B3  symmetry.
   246 basis functions,   578 primitive gaussians,   266 cartesian basis functions
    50 alpha electrons       50 beta electrons
       nuclear repulsion energy       942.3852914006 Hartrees.
 NAtoms=   10 NActive=   10 NUniq=    2 SFac= 4.00D+00 NAtFMM=   60 NAOKFM=F Big=F
 Integral buffers will be    131072 words long.
 Raffenetti 2 integral format.
 Two-electron integral symmetry is turned on.
 One-electron integrals computed using PRISM.
 NBasis=   246 RedAO= T EigKep=  2.06D-04  NBF=    66    60    60    60
 NBsUse=   246 1.00D-06 EigRej= -1.00D+00 NBFU=    66    60    60    60
 Initial guess from the checkpoint file:  "Al4O6.chk"
 B after Tr=     0.000000   -0.000000   -0.000000
         Rot=    1.000000    0.000000   -0.000000   -0.000000 Ang=   0.00 deg.
 Initial guess orbital symmetries:
       Occupied  (T2) (T2) (T2) (A1) (E) (E) (T2) (T2) (T2) (A1)
                 (A1) (T2) (T2) (T2) (A1) (T2) (T2) (T2) (E) (E)
                 (T2) (T2) (T2) (T1) (T1) (T1) (A1) (T2) (T2) (T2)
                 (E) (E) (A1) (T2) (T2) (T2) (T1) (T1) (T1) (T2)
                 (T2) (T2) (T2) (T2) (T2) (E) (E) (T1) (T1) (T1)
       Virtual   (A1) (T2) (T2) (T2) (A1) (T2) (T2) (T2) (E) (E)
                 (T2) (T2) (T2) (A1) (T1) (T1) (T1) (A1) (T2) (T2)
                 (T2) (E) (E) (T2) (T2) (T2) (A1) (T1) (T1) (T1)
                 (T2) (T2) (T2) (T2) (T2) (T2) (E) (E) (T1) (T1)
                 (T1) (A1) (E) (E) (T2) (T2) (T2) (T1) (T1) (T1)
                 (T2) (T2) (T2) (E) (E) (T2) (T2) (T2) (T1) (T1)
                 (T1) (A1) (T2) (T2) (T2) (T2) (T2) (T2) (T2) (T2)
                 (T2) (A1) (T1) (T1) (T1) (T2) (T2) (T2) (E) (E)
                 (T2) (T2) (T2) (T1) (T1) (T1) (E) (E) (T2) (T2)
                 (T2) (E) (E) (T1) (T1) (T1) (A1) (T2) (T2) (T2)
                 (T2) (T2) (T2) (A1) (E) (E) (T1) (T1) (T1) (T2)
                 (T2) (T2) (A2) (E) (E) (T2) (T2) (T2) (T1) (T1)
                 (T1) (T1) (T1) (T1) (T2) (T2) (T2) (T1) (T1) (T1)
                 (A1) (E) (E) (T2) (T2) (T2) (T2) (T2) (T2) (E)
                 (E) (T1) (T1) (T1) (A1) (T2) (T2) (T2) (A1) (E)
                 (E) (T2) (T2) (T2) (T1) (T1) (T1) (T2) (T2) (T2)
                 (A1) (T2) (T2) (T2) (E) (E) (A2) (E) (E) (T2)
                 (T2) (T2) (A1) (T1) (T1) (T1) (T2) (T2) (T2) (T2)
                 (T2) (T2) (E) (E) (A1) (T1) (T1) (T1) (T1) (T1)
                 (T1) (T2) (T2) (T2) (E) (E)
 ExpMin= 1.53D-02 ExpMax= 6.42D+04 ExpMxC= 2.19D+03 IAcc=3 IRadAn=         5 AccDes= 0.00D+00
 Harris functional with IExCor= 1009 and IRadAn=       5 diagonalized for initial guess.
 HarFok:  IExCor= 1009 AccDes= 0.00D+00 IRadAn=         5 IDoV= 1 UseB2=F ITyADJ=14
 ICtDFT=  3500011 ScaDFX=  1.000000  1.000000  1.000000  1.000000
 FoFCou: FMM=F IPFlag=           0 FMFlag=      100000 FMFlg1=           0
         NFxFlg=           0 DoJE=T BraDBF=F KetDBF=T FulRan=T
         wScrn=  0.000000 ICntrl=       500 IOpCl=  0 I1Cent=   200000004 NGrid=           0
         NMat0=    1 NMatS0=      1 NMatT0=    0 NMatD0=    1 NMtDS0=    0 NMtDT0=    0
 Petite list used in FoFCou.
 Keep R1 ints in memory in symmetry-blocked form, NReq=576986205.
 Requested convergence on RMS density matrix=1.00D-08 within 128 cycles.
 Requested convergence on MAX density matrix=1.00D-06.
 Requested convergence on             energy=1.00D-06.
 No special actions if energy rises.
 SCF Done:  E(RM062X) =  -1421.41515098     A.U. after    8 cycles
            NFock=  8  Conv=0.79D-08     -V/T= 2.0041
 Calling FoFJK, ICntrl=      2127 FMM=F ISym2X=1 I1Cent= 0 IOpClX= 0 NMat=1 NMatS=1 NMatT=0.
 ***** Axes restored to original set *****
 -------------------------------------------------------------------
 Center     Atomic                   Forces (Hartrees/Bohr)
 Number     Number              X              Y              Z
 -------------------------------------------------------------------
      1       13          -0.000262133    0.000262133    0.000262133
      2        8           0.000000000    0.001856675   -0.000000000
      3        8          -0.001856675   -0.000000000   -0.000000000
      4        8          -0.000000000   -0.000000000    0.001856675
      5       13           0.000262133   -0.000262133    0.000262133
      6       13          -0.000262133   -0.000262133   -0.000262133
      7       13           0.000262133    0.000262133   -0.000262133
      8        8          -0.000000000   -0.001856675   -0.000000000
      9        8          -0.000000000   -0.000000000   -0.001856675
     10        8           0.001856675   -0.000000000    0.000000000
 -------------------------------------------------------------------
 Cartesian Forces:  Max     0.001856675 RMS     0.000846720

 GradGradGradGradGradGradGradGradGradGradGradGradGradGradGradGradGradGrad
 Berny optimization.
 Using GEDIIS/GDIIS optimizer.
 FormGI is forming the generalized inverse of G from B-inverse, IUseBI=4.
 Internal  Forces:  Max     0.001063436 RMS     0.000483545
 Search for a local minimum.
 Step number   2 out of a maximum of   88
 All quantities printed in internal units (Hartrees-Bohrs-Radians)
 Mixed Optimization -- En-DIIS/RFO-DIIS
 Update second derivatives using D2CorX and points    1    2
 DE= -7.68D-04 DEPred=-6.30D-04 R= 1.22D+00
 TightC=F SS=  1.41D+00  RLast= 6.88D-02 DXNew= 5.0454D-01 2.0643D-01
 Trust test= 1.22D+00 RLast= 6.88D-02 DXMaxT set to 3.00D-01
 ITU=  1  0
 Use linear search instead of GDIIS.
     Eigenvalues ---    0.06596   0.06596   0.06596   0.08951   0.11863
     Eigenvalues ---    0.11863   0.11863   0.14426   0.14426   0.14426
     Eigenvalues ---    0.14640   0.14640   0.21580   0.25855   0.25855
     Eigenvalues ---    0.29388   0.29388   0.29388   0.29828   0.29828
     Eigenvalues ---    0.29828   0.31062   0.31062   0.31062
 RFO step:  Lambda=-2.02403070D-06 EMin= 6.59611787D-02
 Quartic linear search produced a step of  0.29605.
 Iteration  1 RMS(Cart)=  0.00211960 RMS(Int)=  0.00001536
 Iteration  2 RMS(Cart)=  0.00000056 RMS(Int)=  0.00001530
 ClnCor:  largest displacement from symmetrization is 6.27D-09 for atom     8.
 Variable       Old X    -DE/DX   Delta X   Delta X   Delta X     New X
                                 (Linear)    (Quad)   (Total)
    R1        3.29530   0.00106   0.00469   0.00028   0.00499   3.30028
    R2        3.29530   0.00106   0.00469   0.00028   0.00499   3.30028
    R3        3.29530   0.00106   0.00469   0.00028   0.00499   3.30028
    R4        5.08618   0.00023  -0.00088   0.00171   0.00081   5.08700
    R5        5.08618   0.00023  -0.00088   0.00171   0.00081   5.08700
    R6        5.08618   0.00023  -0.00088   0.00171   0.00081   5.08700
    R7        3.29530   0.00106   0.00469   0.00028   0.00499   3.30028
    R8        3.29530   0.00106   0.00469   0.00028   0.00499   3.30028
    R9        3.29530   0.00106   0.00469   0.00028   0.00499   3.30028
   R10        5.08618   0.00023  -0.00088   0.00171   0.00081   5.08700
   R11        5.08618   0.00023  -0.00088   0.00171   0.00081   5.08700
   R12        3.29530   0.00106   0.00469   0.00028   0.00499   3.30028
   R13        3.29530   0.00106   0.00469   0.00028   0.00499   3.30028
   R14        5.08618   0.00023  -0.00088   0.00171   0.00081   5.08700
   R15        3.29530   0.00106   0.00469   0.00028   0.00499   3.30028
   R16        3.29530   0.00106   0.00469   0.00028   0.00499   3.30028
   R17        3.29530   0.00106   0.00469   0.00028   0.00499   3.30028
   R18        3.29530   0.00106   0.00469   0.00028   0.00499   3.30028
    A1        1.97826   0.00028   0.00163  -0.00025   0.00136   1.97962
    A2        1.97826   0.00028   0.00163  -0.00025   0.00136   1.97962
    A3        1.63465   0.00029   0.00169  -0.00026   0.00142   1.63607
    A4        1.63465   0.00029   0.00169  -0.00026   0.00142   1.63607
    A5        1.97826   0.00028   0.00163  -0.00025   0.00136   1.97962
    A6        1.63465   0.00029   0.00169  -0.00026   0.00142   1.63607
    A7        1.63465   0.00029   0.00169  -0.00026   0.00142   1.63607
    A8        1.63465   0.00029   0.00169  -0.00026   0.00142   1.63607
    A9        1.63465   0.00029   0.00169  -0.00026   0.00142   1.63607
   A10        1.63465   0.00029   0.00169  -0.00026   0.00142   1.63607
   A11        1.63465   0.00029   0.00169  -0.00026   0.00142   1.63607
   A12        1.63465   0.00029   0.00169  -0.00026   0.00142   1.63607
   A13        1.63465   0.00029   0.00169  -0.00026   0.00142   1.63607
   A14        1.97826   0.00028   0.00163  -0.00025   0.00136   1.97962
   A15        1.97826   0.00028   0.00163  -0.00025   0.00136   1.97962
   A16        1.63465   0.00029   0.00169  -0.00026   0.00142   1.63607
   A17        1.63465   0.00029   0.00169  -0.00026   0.00142   1.63607
   A18        1.97826   0.00028   0.00163  -0.00025   0.00136   1.97962
   A19        1.63465   0.00029   0.00169  -0.00026   0.00142   1.63607
   A20        1.63465   0.00029   0.00169  -0.00026   0.00142   1.63607
   A21        1.63465   0.00029   0.00169  -0.00026   0.00142   1.63607
   A22        1.63465   0.00029   0.00169  -0.00026   0.00142   1.63607
   A23        1.97826   0.00028   0.00163  -0.00025   0.00136   1.97962
   A24        1.97826   0.00028   0.00163  -0.00025   0.00136   1.97962
   A25        1.63465   0.00029   0.00169  -0.00026   0.00142   1.63607
   A26        1.63465   0.00029   0.00169  -0.00026   0.00142   1.63607
   A27        1.97826   0.00028   0.00163  -0.00025   0.00136   1.97962
   A28        1.63465   0.00029   0.00169  -0.00026   0.00142   1.63607
   A29        1.63465   0.00029   0.00169  -0.00026   0.00142   1.63607
   A30        1.63465   0.00029   0.00169  -0.00026   0.00142   1.63607
   A31        1.63465   0.00029   0.00169  -0.00026   0.00142   1.63607
   A32        1.97826   0.00028   0.00163  -0.00025   0.00136   1.97962
   A33        1.97826   0.00028   0.00163  -0.00025   0.00136   1.97962
   A34        1.63465   0.00029   0.00169  -0.00026   0.00142   1.63607
   A35        1.63465   0.00029   0.00169  -0.00026   0.00142   1.63607
   A36        1.97826   0.00028   0.00163  -0.00025   0.00136   1.97962
    D1       -1.98449  -0.00034  -0.00196   0.00031  -0.00165  -1.98613
    D2        0.00000  -0.00000   0.00000  -0.00000   0.00000   0.00000
    D3       -0.00000   0.00000   0.00000  -0.00000   0.00000   0.00000
    D4        1.98449   0.00034   0.00196  -0.00031   0.00165   1.98613
    D5        1.98449   0.00034   0.00196  -0.00031   0.00165   1.98613
    D6       -0.00000   0.00000   0.00000  -0.00000   0.00000   0.00000
    D7       -0.00000   0.00000   0.00000  -0.00000   0.00000   0.00000
    D8       -1.98449  -0.00034  -0.00196   0.00031  -0.00165  -1.98613
    D9       -0.00000  -0.00000   0.00000  -0.00000   0.00000   0.00000
   D10       -1.98449  -0.00034  -0.00196   0.00031  -0.00165  -1.98613
   D11        1.98449   0.00034   0.00196  -0.00031   0.00165   1.98613
   D12        0.00000   0.00000   0.00000  -0.00000   0.00000   0.00000
   D13        0.00000  -0.00000   0.00000   0.00000   0.00000   0.00000
   D14        1.98449   0.00034   0.00196  -0.00031   0.00165   1.98613
   D15       -1.98449  -0.00034  -0.00196   0.00031  -0.00165  -1.98613
   D16        0.00000   0.00000   0.00000  -0.00000  -0.00000   0.00000
   D17       -0.00000   0.00000   0.00000   0.00000   0.00000   0.00000
   D18       -1.98449  -0.00034  -0.00196   0.00031  -0.00165  -1.98613
   D19        1.98449   0.00034   0.00196  -0.00031   0.00165   1.98613
   D20       -0.00000  -0.00000   0.00000   0.00000   0.00000   0.00000
   D21        0.00000  -0.00000   0.00000   0.00000   0.00000   0.00000
   D22        1.98449   0.00034   0.00196  -0.00031   0.00165   1.98613
   D23       -1.98449  -0.00034  -0.00196   0.00031  -0.00165  -1.98613
   D24        0.00000  -0.00000   0.00000  -0.00000   0.00000   0.00000
         Item               Value     Threshold  Converged?
 Maximum Force            0.001063     0.000450     NO 
 RMS     Force            0.000484     0.000300     NO 
 Maximum Displacement     0.007631     0.001800     NO 
 RMS     Displacement     0.002120     0.001200     NO 
 Predicted change in Energy=-4.226226D-05
 GradGradGradGradGradGradGradGradGradGradGradGradGradGradGradGradGradGrad

                          Input orientation:                          
 ---------------------------------------------------------------------
 Center     Atomic      Atomic             Coordinates (Angstroms)
 Number     Number       Type             X           Y           Z
 ---------------------------------------------------------------------
      1         13           0       -0.951739    0.951739    0.951739
      2          8           0        0.000000    2.064583    0.000000
      3          8           0       -2.064583    0.000000    0.000000
      4          8           0       -0.000000    0.000000    2.064583
      5         13           0        0.951739   -0.951739    0.951739
      6         13           0       -0.951739   -0.951739   -0.951739
      7         13           0        0.951739    0.951739   -0.951739
      8          8           0       -0.000000   -2.064583    0.000000
      9          8           0       -0.000000   -0.000000   -2.064583
     10          8           0        2.064583   -0.000000    0.000000
 ---------------------------------------------------------------------
                    Distance matrix (angstroms):
                    1          2          3          4          5
     1  Al   0.000000
     2  O    1.746435   0.000000
     3  O    1.746435   2.919761   0.000000
     4  O    1.746435   2.919761   2.919761   0.000000
     5  Al   2.691924   3.303000   3.303000   1.746435   0.000000
     6  Al   2.691924   3.303000   1.746435   3.303000   2.691924
     7  Al   2.691924   1.746435   3.303000   3.303000   2.691924
     8  O    3.303000   4.129166   2.919761   2.919761   1.746435
     9  O    3.303000   2.919761   2.919761   4.129166   3.303000
    10  O    3.303000   2.919761   4.129166   2.919761   1.746435
                    6          7          8          9         10
     6  Al   0.000000
     7  Al   2.691924   0.000000
     8  O    1.746435   3.303000   0.000000
     9  O    1.746435   1.746435   2.919761   0.000000
    10  O    3.303000   1.746435   2.919761   2.919761   0.000000
 Stoichiometry    Al4O6
 Framework group  TD[4C3(Al),3C2(O.O)]
 Deg. of freedom     1
 Full point group                 TD      NOp  24
 Largest Abelian subgroup         D2      NOp   4
 Largest concise Abelian subgroup D2      NOp   4
                         Standard orientation:                         
 ---------------------------------------------------------------------
 Center     Atomic      Atomic             Coordinates (Angstroms)
 Number     Number       Type             X           Y           Z
 ---------------------------------------------------------------------
      1         13           0       -0.951739    0.951739    0.951739
      2          8           0        0.000000    2.064583    0.000000
      3          8           0       -2.064583    0.000000    0.000000
      4          8           0       -0.000000    0.000000    2.064583
      5         13           0        0.951739   -0.951739    0.951739
      6         13           0       -0.951739   -0.951739   -0.951739
      7         13           0        0.951739    0.951739   -0.951739
      8          8           0        0.000000   -2.064583    0.000000
      9          8           0       -0.000000   -0.000000   -2.064583
     10          8           0        2.064583   -0.000000    0.000000
 ---------------------------------------------------------------------
 Rotational constants (GHZ):           1.0793302           1.0793302           1.0793302
 Standard basis: Aug-CC-pVDZ (5D, 7F)
 There are    74 symmetry adapted cartesian basis functions of A   symmetry.
 There are    64 symmetry adapted cartesian basis functions of B1  symmetry.
 There are    64 symmetry adapted cartesian basis functions of B2  symmetry.
 There are    64 symmetry adapted cartesian basis functions of B3  symmetry.
 There are    66 symmetry adapted basis functions of A   symmetry.
 There are    60 symmetry adapted basis functions of B1  symmetry.
 There are    60 symmetry adapted basis functions of B2  symmetry.
 There are    60 symmetry adapted basis functions of B3  symmetry.
   246 basis functions,   578 primitive gaussians,   266 cartesian basis functions
    50 alpha electrons       50 beta electrons
       nuclear repulsion energy       941.2226157000 Hartrees.
 NAtoms=   10 NActive=   10 NUniq=    2 SFac= 4.00D+00 NAtFMM=   60 NAOKFM=F Big=F
 Integral buffers will be    131072 words long.
 Raffenetti 2 integral format.
 Two-electron integral symmetry is turned on.
 One-electron integrals computed using PRISM.
 NBasis=   246 RedAO= T EigKep=  2.09D-04  NBF=    66    60    60    60
 NBsUse=   246 1.00D-06 EigRej= -1.00D+00 NBFU=    66    60    60    60
 Initial guess from the checkpoint file:  "Al4O6.chk"
 B after Tr=     0.000000    0.000000    0.000000
         Rot=    1.000000   -0.000000    0.000000   -0.000000 Ang=   0.00 deg.
 Initial guess orbital symmetries:
       Occupied  (T2) (T2) (T2) (A1) (E) (E) (T2) (T2) (T2) (A1)
                 (A1) (T2) (T2) (T2) (A1) (T2) (T2) (T2) (E) (E)
                 (T2) (T2) (T2) (T1) (T1) (T1) (A1) (T2) (T2) (T2)
                 (E) (E) (A1) (T2) (T2) (T2) (T1) (T1) (T1) (T2)
                 (T2) (T2) (E) (E) (T2) (T2) (T2) (T1) (T1) (T1)
       Virtual   (A1) (T2) (T2) (T2) (A1) (T2) (T2) (T2) (E) (E)
                 (A1) (T2) (T2) (T2) (T1) (T1) (T1) (A1) (T2) (T2)
                 (T2) (E) (E) (T2) (T2) (T2) (A1) (T1) (T1) (T1)
                 (T2) (T2) (T2) (T2) (T2) (T2) (E) (E) (T1) (T1)
                 (T1) (A1) (E) (E) (T2) (T2) (T2) (T1) (T1) (T1)
                 (T2) (T2) (T2) (E) (E) (T2) (T2) (T2) (T1) (T1)
                 (T1) (A1) (T2) (T2) (T2) (T2) (T2) (T2) (T2) (T2)
                 (T2) (A1) (T1) (T1) (T1) (T2) (T2) (T2) (T2) (T2)
                 (T2) (E) (E) (T1) (T1) (T1) (E) (E) (T2) (T2)
                 (T2) (E) (E) (T1) (T1) (T1) (A1) (T2) (T2) (T2)
                 (T2) (T2) (T2) (A1) (E) (E) (T1) (T1) (T1) (A2)
                 (T2) (T2) (T2) (E) (E) (T2) (T2) (T2) (T1) (T1)
                 (T1) (T1) (T1) (T1) (T2) (T2) (T2) (A1) (T1) (T1)
                 (T1) (E) (E) (T2) (T2) (T2) (T2) (T2) (T2) (E)
                 (E) (T1) (T1) (T1) (A1) (A1) (T2) (T2) (T2) (E)
                 (E) (T2) (T2) (T2) (T1) (T1) (T1) (T2) (T2) (T2)
                 (T2) (T2) (T2) (A1) (E) (E) (A2) (E) (E) (T2)
                 (T2) (T2) (A1) (T1) (T1) (T1) (T2) (T2) (T2) (T2)
                 (T2) (T2) (E) (E) (A1) (T1) (T1) (T1) (T1) (T1)
                 (T1) (T2) (T2) (T2) (E) (E)
 Keep R1 ints in memory in symmetry-blocked form, NReq=576986205.
 Requested convergence on RMS density matrix=1.00D-08 within 128 cycles.
 Requested convergence on MAX density matrix=1.00D-06.
 Requested convergence on             energy=1.00D-06.
 No special actions if energy rises.
 SCF Done:  E(RM062X) =  -1421.41519438     A.U. after    8 cycles
            NFock=  8  Conv=0.27D-08     -V/T= 2.0041
 Calling FoFJK, ICntrl=      2127 FMM=F ISym2X=1 I1Cent= 0 IOpClX= 0 NMat=1 NMatS=1 NMatT=0.
 ***** Axes restored to original set *****
 -------------------------------------------------------------------
 Center     Atomic                   Forces (Hartrees/Bohr)
 Number     Number              X              Y              Z
 -------------------------------------------------------------------
      1       13          -0.000120869    0.000120869    0.000120869
      2        8           0.000000000    0.000012513   -0.000000000
      3        8          -0.000012513   -0.000000000    0.000000000
      4        8           0.000000000   -0.000000000    0.000012513
      5       13           0.000120869   -0.000120869    0.000120869
      6       13          -0.000120869   -0.000120869   -0.000120869
      7       13           0.000120869    0.000120869   -0.000120869
      8        8          -0.000000000   -0.000012513   -0.000000000
      9        8           0.000000000    0.000000000   -0.000012513
     10        8           0.000012513   -0.000000000    0.000000000
 -------------------------------------------------------------------
 Cartesian Forces:  Max     0.000120869 RMS     0.000076649

 GradGradGradGradGradGradGradGradGradGradGradGradGradGradGradGradGradGrad
 Berny optimization.
 Using GEDIIS/GDIIS optimizer.
 FormGI is forming the generalized inverse of G from B-inverse, IUseBI=4.
 Internal  Forces:  Max     0.000068787 RMS     0.000021592
 Search for a local minimum.
 Step number   3 out of a maximum of   88
 All quantities printed in internal units (Hartrees-Bohrs-Radians)
 Mixed Optimization -- En-DIIS/RFO-DIIS
 Swapping is turned off.
 Update second derivatives using D2CorX and points    1    2    3
 DE= -4.34D-05 DEPred=-4.23D-05 R= 1.03D+00
 TightC=F SS=  1.41D+00  RLast= 2.01D-02 DXNew= 5.0454D-01 6.0407D-02
 Trust test= 1.03D+00 RLast= 2.01D-02 DXMaxT set to 3.00D-01
 ITU=  1  1  0
     Eigenvalues ---    0.06602   0.06602   0.06602   0.08979   0.11841
     Eigenvalues ---    0.11841   0.11841   0.14436   0.14436   0.14436
     Eigenvalues ---    0.14635   0.14635   0.20954   0.25893   0.25893
     Eigenvalues ---    0.29398   0.29398   0.29398   0.29822   0.29822
     Eigenvalues ---    0.29822   0.31063   0.31063   0.31063
 En-DIIS/RFO-DIIS/Sim-DIIS IScMMF=       -3 using points:     3    2
 RFO step:  Lambda=-3.91046670D-07.
 DidBck=F Rises=F RFO-DIIS coefs:    1.01228   -0.01228
 Iteration  1 RMS(Cart)=  0.00010563 RMS(Int)=  0.00000004
 Iteration  2 RMS(Cart)=  0.00000001 RMS(Int)=  0.00000004
 ClnCor:  largest displacement from symmetrization is 5.97D-09 for atom     3.
 Variable       Old X    -DE/DX   Delta X   Delta X   Delta X     New X
                                 (Linear)    (Quad)   (Total)
    R1        3.30028   0.00002   0.00006   0.00009   0.00015   3.30044
    R2        3.30028   0.00002   0.00006   0.00009   0.00015   3.30044
    R3        3.30028   0.00002   0.00006   0.00009   0.00015   3.30044
    R4        5.08700   0.00007   0.00001   0.00075   0.00076   5.08775
    R5        5.08700   0.00007   0.00001   0.00075   0.00076   5.08775
    R6        5.08700   0.00007   0.00001   0.00075   0.00076   5.08775
    R7        3.30028   0.00002   0.00006   0.00009   0.00015   3.30044
    R8        3.30028   0.00002   0.00006   0.00009   0.00015   3.30044
    R9        3.30028   0.00002   0.00006   0.00009   0.00015   3.30044
   R10        5.08700   0.00007   0.00001   0.00075   0.00076   5.08775
   R11        5.08700   0.00007   0.00001   0.00075   0.00076   5.08775
   R12        3.30028   0.00002   0.00006   0.00009   0.00015   3.30044
   R13        3.30028   0.00002   0.00006   0.00009   0.00015   3.30044
   R14        5.08700   0.00007   0.00001   0.00075   0.00076   5.08775
   R15        3.30028   0.00002   0.00006   0.00009   0.00015   3.30044
   R16        3.30028   0.00002   0.00006   0.00009   0.00015   3.30044
   R17        3.30028   0.00002   0.00006   0.00009   0.00015   3.30044
   R18        3.30028   0.00002   0.00006   0.00009   0.00015   3.30044
    A1        1.97962  -0.00001   0.00002  -0.00012  -0.00010   1.97951
    A2        1.97962  -0.00001   0.00002  -0.00012  -0.00010   1.97951
    A3        1.63607  -0.00001   0.00002  -0.00012  -0.00011   1.63596
    A4        1.63607  -0.00001   0.00002  -0.00012  -0.00011   1.63596
    A5        1.97962  -0.00001   0.00002  -0.00012  -0.00010   1.97951
    A6        1.63607  -0.00001   0.00002  -0.00012  -0.00011   1.63596
    A7        1.63607  -0.00001   0.00002  -0.00012  -0.00011   1.63596
    A8        1.63607  -0.00001   0.00002  -0.00012  -0.00011   1.63596
    A9        1.63607  -0.00001   0.00002  -0.00012  -0.00011   1.63596
   A10        1.63607  -0.00001   0.00002  -0.00012  -0.00011   1.63596
   A11        1.63607  -0.00001   0.00002  -0.00012  -0.00011   1.63596
   A12        1.63607  -0.00001   0.00002  -0.00012  -0.00011   1.63596
   A13        1.63607  -0.00001   0.00002  -0.00012  -0.00011   1.63596
   A14        1.97962  -0.00001   0.00002  -0.00012  -0.00010   1.97951
   A15        1.97962  -0.00001   0.00002  -0.00012  -0.00010   1.97951
   A16        1.63607  -0.00001   0.00002  -0.00012  -0.00011   1.63596
   A17        1.63607  -0.00001   0.00002  -0.00012  -0.00011   1.63596
   A18        1.97962  -0.00001   0.00002  -0.00012  -0.00010   1.97951
   A19        1.63607  -0.00001   0.00002  -0.00012  -0.00011   1.63596
   A20        1.63607  -0.00001   0.00002  -0.00012  -0.00011   1.63596
   A21        1.63607  -0.00001   0.00002  -0.00012  -0.00011   1.63596
   A22        1.63607  -0.00001   0.00002  -0.00012  -0.00011   1.63596
   A23        1.97962  -0.00001   0.00002  -0.00012  -0.00010   1.97951
   A24        1.97962  -0.00001   0.00002  -0.00012  -0.00010   1.97951
   A25        1.63607  -0.00001   0.00002  -0.00012  -0.00011   1.63596
   A26        1.63607  -0.00001   0.00002  -0.00012  -0.00011   1.63596
   A27        1.97962  -0.00001   0.00002  -0.00012  -0.00010   1.97951
   A28        1.63607  -0.00001   0.00002  -0.00012  -0.00011   1.63596
   A29        1.63607  -0.00001   0.00002  -0.00012  -0.00011   1.63596
   A30        1.63607  -0.00001   0.00002  -0.00012  -0.00011   1.63596
   A31        1.63607  -0.00001   0.00002  -0.00012  -0.00011   1.63596
   A32        1.97962  -0.00001   0.00002  -0.00012  -0.00010   1.97951
   A33        1.97962  -0.00001   0.00002  -0.00012  -0.00010   1.97951
   A34        1.63607  -0.00001   0.00002  -0.00012  -0.00011   1.63596
   A35        1.63607  -0.00001   0.00002  -0.00012  -0.00011   1.63596
   A36        1.97962  -0.00001   0.00002  -0.00012  -0.00010   1.97951
    D1       -1.98613   0.00001  -0.00002   0.00014   0.00012  -1.98601
    D2        0.00000  -0.00000   0.00000  -0.00000   0.00000   0.00000
    D3       -0.00000   0.00000   0.00000   0.00000   0.00000   0.00000
    D4        1.98613  -0.00001   0.00002  -0.00014  -0.00012   1.98601
    D5        1.98613  -0.00001   0.00002  -0.00014  -0.00012   1.98601
    D6       -0.00000   0.00000   0.00000   0.00000   0.00000   0.00000
    D7       -0.00000   0.00000   0.00000   0.00000   0.00000   0.00000
    D8       -1.98613   0.00001  -0.00002   0.00014   0.00012  -1.98601
    D9       -0.00000  -0.00000   0.00000  -0.00000   0.00000   0.00000
   D10       -1.98613   0.00001  -0.00002   0.00014   0.00012  -1.98601
   D11        1.98613  -0.00001   0.00002  -0.00014  -0.00012   1.98601
   D12        0.00000   0.00000   0.00000   0.00000   0.00000   0.00000
   D13        0.00000  -0.00000   0.00000  -0.00000   0.00000   0.00000
   D14        1.98613  -0.00001   0.00002  -0.00014  -0.00012   1.98601
   D15       -1.98613   0.00001  -0.00002   0.00014   0.00012  -1.98601
   D16        0.00000  -0.00000   0.00000  -0.00000   0.00000   0.00000
   D17       -0.00000   0.00000   0.00000  -0.00000   0.00000   0.00000
   D18       -1.98613   0.00001  -0.00002   0.00014   0.00012  -1.98601
   D19        1.98613  -0.00001   0.00002  -0.00014  -0.00012   1.98601
   D20       -0.00000   0.00000   0.00000   0.00000   0.00000   0.00000
   D21        0.00000  -0.00000   0.00000  -0.00000   0.00000   0.00000
   D22        1.98613  -0.00001   0.00002  -0.00014  -0.00012   1.98601
   D23       -1.98613   0.00001  -0.00002   0.00014   0.00012  -1.98601
   D24        0.00000  -0.00000   0.00000  -0.00000   0.00000   0.00000
         Item               Value     Threshold  Converged?
 Maximum Force            0.000069     0.000450     YES
 RMS     Force            0.000022     0.000300     YES
 Maximum Displacement     0.000267     0.001800     YES
 RMS     Displacement     0.000106     0.001200     YES
 Predicted change in Energy=-1.955165D-07
 Optimization completed.
    -- Stationary point found.
                           ----------------------------
                           !   Optimized Parameters   !
                           ! (Angstroms and Degrees)  !
 --------------------------                            --------------------------
 ! Name  Definition              Value          Derivative Info.                !
 --------------------------------------------------------------------------------
 ! R1    R(1,2)                  1.7464         -DE/DX =    0.0                 !
 ! R2    R(1,3)                  1.7464         -DE/DX =    0.0                 !
 ! R3    R(1,4)                  1.7464         -DE/DX =    0.0                 !
 ! R4    R(1,5)                  2.6919         -DE/DX =    0.0001              !
 ! R5    R(1,6)                  2.6919         -DE/DX =    0.0001              !
 ! R6    R(1,7)                  2.6919         -DE/DX =    0.0001              !
 ! R7    R(2,7)                  1.7464         -DE/DX =    0.0                 !
 ! R8    R(3,6)                  1.7464         -DE/DX =    0.0                 !
 ! R9    R(4,5)                  1.7464         -DE/DX =    0.0                 !
 ! R10   R(5,6)                  2.6919         -DE/DX =    0.0001              !
 ! R11   R(5,7)                  2.6919         -DE/DX =    0.0001              !
 ! R12   R(5,8)                  1.7464         -DE/DX =    0.0                 !
 ! R13   R(5,10)                 1.7464         -DE/DX =    0.0                 !
 ! R14   R(6,7)                  2.6919         -DE/DX =    0.0001              !
 ! R15   R(6,8)                  1.7464         -DE/DX =    0.0                 !
 ! R16   R(6,9)                  1.7464         -DE/DX =    0.0                 !
 ! R17   R(7,9)                  1.7464         -DE/DX =    0.0                 !
 ! R18   R(7,10)                 1.7464         -DE/DX =    0.0                 !
 ! A1    A(2,1,3)              113.4236         -DE/DX =    0.0                 !
 ! A2    A(2,1,4)              113.4236         -DE/DX =    0.0                 !
 ! A3    A(2,1,5)               93.74           -DE/DX =    0.0                 !
 ! A4    A(2,1,6)               93.74           -DE/DX =    0.0                 !
 ! A5    A(3,1,4)              113.4236         -DE/DX =    0.0                 !
 ! A6    A(3,1,5)               93.74           -DE/DX =    0.0                 !
 ! A7    A(3,1,7)               93.74           -DE/DX =    0.0                 !
 ! A8    A(4,1,6)               93.74           -DE/DX =    0.0                 !
 ! A9    A(4,1,7)               93.74           -DE/DX =    0.0                 !
 ! A10   A(1,5,8)               93.74           -DE/DX =    0.0                 !
 ! A11   A(1,5,10)              93.74           -DE/DX =    0.0                 !
 ! A12   A(4,5,6)               93.74           -DE/DX =    0.0                 !
 ! A13   A(4,5,7)               93.74           -DE/DX =    0.0                 !
 ! A14   A(4,5,8)              113.4236         -DE/DX =    0.0                 !
 ! A15   A(4,5,10)             113.4236         -DE/DX =    0.0                 !
 ! A16   A(6,5,10)              93.74           -DE/DX =    0.0                 !
 ! A17   A(7,5,8)               93.74           -DE/DX =    0.0                 !
 ! A18   A(8,5,10)             113.4236         -DE/DX =    0.0                 !
 ! A19   A(1,6,8)               93.74           -DE/DX =    0.0                 !
 ! A20   A(1,6,9)               93.74           -DE/DX =    0.0                 !
 ! A21   A(3,6,5)               93.74           -DE/DX =    0.0                 !
 ! A22   A(3,6,7)               93.74           -DE/DX =    0.0                 !
 ! A23   A(3,6,8)              113.4236         -DE/DX =    0.0                 !
 ! A24   A(3,6,9)              113.4236         -DE/DX =    0.0                 !
 ! A25   A(5,6,9)               93.74           -DE/DX =    0.0                 !
 ! A26   A(7,6,8)               93.74           -DE/DX =    0.0                 !
 ! A27   A(8,6,9)              113.4236         -DE/DX =    0.0                 !
 ! A28   A(1,7,9)               93.74           -DE/DX =    0.0                 !
 ! A29   A(1,7,10)              93.74           -DE/DX =    0.0                 !
 ! A30   A(2,7,5)               93.74           -DE/DX =    0.0                 !
 ! A31   A(2,7,6)               93.74           -DE/DX =    0.0                 !
 ! A32   A(2,7,9)              113.4236         -DE/DX =    0.0                 !
 ! A33   A(2,7,10)             113.4236         -DE/DX =    0.0                 !
 ! A34   A(5,7,9)               93.74           -DE/DX =    0.0                 !
 ! A35   A(6,7,10)              93.74           -DE/DX =    0.0                 !
 ! A36   A(9,7,10)             113.4236         -DE/DX =    0.0                 !
 ! D1    D(2,1,5,8)           -113.797          -DE/DX =    0.0                 !
 ! D2    D(2,1,5,10)             0.0            -DE/DX =    0.0                 !
 ! D3    D(3,1,5,8)              0.0            -DE/DX =    0.0                 !
 ! D4    D(3,1,5,10)           113.797          -DE/DX =    0.0                 !
 ! D5    D(2,1,6,8)            113.797          -DE/DX =    0.0                 !
 ! D6    D(2,1,6,9)              0.0            -DE/DX =    0.0                 !
 ! D7    D(4,1,6,8)              0.0            -DE/DX =    0.0                 !
 ! D8    D(4,1,6,9)           -113.797          -DE/DX =    0.0                 !
 ! D9    D(3,1,7,9)              0.0            -DE/DX =    0.0                 !
 ! D10   D(3,1,7,10)          -113.797          -DE/DX =    0.0                 !
 ! D11   D(4,1,7,9)            113.797          -DE/DX =    0.0                 !
 ! D12   D(4,1,7,10)             0.0            -DE/DX =    0.0                 !
 ! D13   D(4,5,6,3)              0.0            -DE/DX =    0.0                 !
 ! D14   D(4,5,6,9)            113.797          -DE/DX =    0.0                 !
 ! D15   D(10,5,6,3)          -113.797          -DE/DX =    0.0                 !
 ! D16   D(10,5,6,9)             0.0            -DE/DX =    0.0                 !
 ! D17   D(4,5,7,2)              0.0            -DE/DX =    0.0                 !
 ! D18   D(4,5,7,9)           -113.797          -DE/DX =    0.0                 !
 ! D19   D(8,5,7,2)            113.797          -DE/DX =    0.0                 !
 ! D20   D(8,5,7,9)              0.0            -DE/DX =    0.0                 !
 ! D21   D(3,6,7,2)              0.0            -DE/DX =    0.0                 !
 ! D22   D(3,6,7,10)           113.797          -DE/DX =    0.0                 !
 ! D23   D(8,6,7,2)           -113.797          -DE/DX =    0.0                 !
 ! D24   D(8,6,7,10)             0.0            -DE/DX =    0.0                 !
 --------------------------------------------------------------------------------
 GradGradGradGradGradGradGradGradGradGradGradGradGradGradGradGradGradGrad

                          Input orientation:                          
 ---------------------------------------------------------------------
 Center     Atomic      Atomic             Coordinates (Angstroms)
 Number     Number       Type             X           Y           Z
 ---------------------------------------------------------------------
      1         13           0       -0.951739    0.951739    0.951739
      2          8           0        0.000000    2.064583    0.000000
      3          8           0       -2.064583    0.000000    0.000000
      4          8           0       -0.000000    0.000000    2.064583
      5         13           0        0.951739   -0.951739    0.951739
      6         13           0       -0.951739   -0.951739   -0.951739
      7         13           0        0.951739    0.951739   -0.951739
      8          8           0       -0.000000   -2.064583    0.000000
      9          8           0       -0.000000   -0.000000   -2.064583
     10          8           0        2.064583   -0.000000    0.000000
 ---------------------------------------------------------------------
                    Distance matrix (angstroms):
                    1          2          3          4          5
     1  Al   0.000000
     2  O    1.746435   0.000000
     3  O    1.746435   2.919761   0.000000
     4  O    1.746435   2.919761   2.919761   0.000000
     5  Al   2.691924   3.303000   3.303000   1.746435   0.000000
     6  Al   2.691924   3.303000   1.746435   3.303000   2.691924
     7  Al   2.691924   1.746435   3.303000   3.303000   2.691924
     8  O    3.303000   4.129166   2.919761   2.919761   1.746435
     9  O    3.303000   2.919761   2.919761   4.129166   3.303000
    10  O    3.303000   2.919761   4.129166   2.919761   1.746435
                    6          7          8          9         10
     6  Al   0.000000
     7  Al   2.691924   0.000000
     8  O    1.746435   3.303000   0.000000
     9  O    1.746435   1.746435   2.919761   0.000000
    10  O    3.303000   1.746435   2.919761   2.919761   0.000000
 Stoichiometry    Al4O6
 Framework group  TD[4C3(Al),3C2(O.O)]
 Deg. of freedom     1
 Full point group                 TD      NOp  24
 Largest Abelian subgroup         D2      NOp   4
 Largest concise Abelian subgroup D2      NOp   4
                         Standard orientation:                         
 ---------------------------------------------------------------------
 Center     Atomic      Atomic             Coordinates (Angstroms)
 Number     Number       Type             X           Y           Z
 ---------------------------------------------------------------------
      1         13           0       -0.951739    0.951739    0.951739
      2          8           0        0.000000    2.064583    0.000000
      3          8           0       -2.064583    0.000000    0.000000
      4          8           0       -0.000000    0.000000    2.064583
      5         13           0        0.951739   -0.951739    0.951739
[...]
   A23        1.97962  -0.00001   0.00000  -0.00017  -0.00017   1.97944
   A24        1.97962  -0.00001   0.00000  -0.00017  -0.00017   1.97944
   A25        1.63607  -0.00001   0.00000  -0.00018  -0.00018   1.63589
   A26        1.63607  -0.00001   0.00000  -0.00018  -0.00018   1.63589
   A27        1.97962  -0.00001   0.00000  -0.00017  -0.00017   1.97944
   A28        1.63607  -0.00001   0.00000  -0.00018  -0.00018   1.63589
   A29        1.63607  -0.00001   0.00000  -0.00018  -0.00018   1.63589
   A30        1.63607  -0.00001   0.00000  -0.00018  -0.00018   1.63589
   A31        1.63607  -0.00001   0.00000  -0.00018  -0.00018   1.63589
   A32        1.97962  -0.00001   0.00000  -0.00017  -0.00017   1.97944
   A33        1.97962  -0.00001   0.00000  -0.00017  -0.00017   1.97944
   A34        1.63607  -0.00001   0.00000  -0.00018  -0.00018   1.63589
   A35        1.63607  -0.00001   0.00000  -0.00018  -0.00018   1.63589
   A36        1.97962  -0.00001   0.00000  -0.00017  -0.00017   1.97944
    D1       -1.98613   0.00001   0.00000   0.00021   0.00021  -1.98592
    D2        0.00000  -0.00000   0.00000   0.00000   0.00000   0.00000
    D3       -0.00000   0.00000   0.00000   0.00000  -0.00000  -0.00000
    D4        1.98613  -0.00001   0.00000  -0.00021  -0.00021   1.98592
    D5        1.98613  -0.00001   0.00000  -0.00021  -0.00021   1.98592
    D6       -0.00000   0.00000   0.00000  -0.00000   0.00000   0.00000
    D7       -0.00000  -0.00000   0.00000  -0.00000  -0.00000  -0.00000
    D8       -1.98613   0.00001   0.00000   0.00021   0.00021  -1.98592
    D9        0.00000  -0.00000   0.00000   0.00000  -0.00000  -0.00000
   D10       -1.98613   0.00001   0.00000   0.00021   0.00021  -1.98592
   D11        1.98613  -0.00001   0.00000  -0.00021  -0.00021   1.98592
   D12        0.00000   0.00000   0.00000  -0.00000   0.00000   0.00000
   D13        0.00000  -0.00000   0.00000  -0.00000   0.00000   0.00000
   D14        1.98613  -0.00001   0.00000  -0.00021  -0.00021   1.98592
   D15       -1.98613   0.00001   0.00000   0.00021   0.00021  -1.98592
   D16        0.00000   0.00000   0.00000  -0.00000  -0.00000  -0.00000
   D17       -0.00000   0.00000   0.00000   0.00000   0.00000   0.00000
   D18       -1.98613   0.00001   0.00000   0.00021   0.00021  -1.98592
   D19        1.98613  -0.00001   0.00000  -0.00021  -0.00021   1.98592
   D20        0.00000  -0.00000   0.00000   0.00000   0.00000   0.00000
   D21        0.00000   0.00000   0.00000   0.00000   0.00000   0.00000
   D22        1.98613  -0.00001   0.00000  -0.00021  -0.00021   1.98592
   D23       -1.98613   0.00001   0.00000   0.00021   0.00021  -1.98592
   D24       -0.00000   0.00000   0.00000  -0.00000   0.00000   0.00000
         Item               Value     Threshold  Converged?
 Maximum Force            0.000069     0.000450     YES
 RMS     Force            0.000022     0.000300     YES
 Maximum Displacement     0.000427     0.001800     YES
 RMS     Displacement     0.000168     0.001200     YES
 Predicted change in Energy=-3.109464D-07
 Optimization completed.
    -- Stationary point found.
                           ----------------------------
                           !   Optimized Parameters   !
                           ! (Angstroms and Degrees)  !
 --------------------------                            --------------------------
 ! Name  Definition              Value          Derivative Info.                !
 --------------------------------------------------------------------------------
 ! R1    R(1,2)                  1.7464         -DE/DX =    0.0                 !
 ! R2    R(1,3)                  1.7464         -DE/DX =    0.0                 !
 ! R3    R(1,4)                  1.7464         -DE/DX =    0.0                 !
 ! R4    R(1,5)                  2.6919         -DE/DX =    0.0001              !
 ! R5    R(1,6)                  2.6919         -DE/DX =    0.0001              !
 ! R6    R(1,7)                  2.6919         -DE/DX =    0.0001              !
 ! R7    R(2,7)                  1.7464         -DE/DX =    0.0                 !
 ! R8    R(3,6)                  1.7464         -DE/DX =    0.0                 !
 ! R9    R(4,5)                  1.7464         -DE/DX =    0.0                 !
 ! R10   R(5,6)                  2.6919         -DE/DX =    0.0001              !
 ! R11   R(5,7)                  2.6919         -DE/DX =    0.0001              !
 ! R12   R(5,8)                  1.7464         -DE/DX =    0.0                 !
 ! R13   R(5,10)                 1.7464         -DE/DX =    0.0                 !
 ! R14   R(6,7)                  2.6919         -DE/DX =    0.0001              !
 ! R15   R(6,8)                  1.7464         -DE/DX =    0.0                 !
 ! R16   R(6,9)                  1.7464         -DE/DX =    0.0                 !
 ! R17   R(7,9)                  1.7464         -DE/DX =    0.0                 !
 ! R18   R(7,10)                 1.7464         -DE/DX =    0.0                 !
 ! A1    A(2,1,3)              113.4236         -DE/DX =    0.0                 !
 ! A2    A(2,1,4)              113.4236         -DE/DX =    0.0                 !
 ! A3    A(2,1,5)               93.74           -DE/DX =    0.0                 !
 ! A4    A(2,1,6)               93.74           -DE/DX =    0.0                 !
 ! A5    A(3,1,4)              113.4236         -DE/DX =    0.0                 !
 ! A6    A(3,1,5)               93.74           -DE/DX =    0.0                 !
 ! A7    A(3,1,7)               93.74           -DE/DX =    0.0                 !
 ! A8    A(4,1,6)               93.74           -DE/DX =    0.0                 !
 ! A9    A(4,1,7)               93.74           -DE/DX =    0.0                 !
 ! A10   A(1,5,8)               93.74           -DE/DX =    0.0                 !
 ! A11   A(1,5,10)              93.74           -DE/DX =    0.0                 !
 ! A12   A(4,5,6)               93.74           -DE/DX =    0.0                 !
 ! A13   A(4,5,7)               93.74           -DE/DX =    0.0                 !
 ! A14   A(4,5,8)              113.4236         -DE/DX =    0.0                 !
 ! A15   A(4,5,10)             113.4236         -DE/DX =    0.0                 !
 ! A16   A(6,5,10)              93.74           -DE/DX =    0.0                 !
 ! A17   A(7,5,8)               93.74           -DE/DX =    0.0                 !
 ! A18   A(8,5,10)             113.4236         -DE/DX =    0.0                 !
 ! A19   A(1,6,8)               93.74           -DE/DX =    0.0                 !
 ! A20   A(1,6,9)               93.74           -DE/DX =    0.0                 !
 ! A21   A(3,6,5)               93.74           -DE/DX =    0.0                 !
 ! A22   A(3,6,7)               93.74           -DE/DX =    0.0                 !
 ! A23   A(3,6,8)              113.4236         -DE/DX =    0.0                 !
 ! A24   A(3,6,9)              113.4236         -DE/DX =    0.0                 !
 ! A25   A(5,6,9)               93.74           -DE/DX =    0.0                 !
 ! A26   A(7,6,8)               93.74           -DE/DX =    0.0                 !
 ! A27   A(8,6,9)              113.4236         -DE/DX =    0.0                 !
 ! A28   A(1,7,9)               93.74           -DE/DX =    0.0                 !
 ! A29   A(1,7,10)              93.74           -DE/DX =    0.0                 !
 ! A30   A(2,7,5)               93.74           -DE/DX =    0.0                 !
 ! A31   A(2,7,6)               93.74           -DE/DX =    0.0                 !
 ! A32   A(2,7,9)              113.4236         -DE/DX =    0.0                 !
 ! A33   A(2,7,10)             113.4236         -DE/DX =    0.0                 !
 ! A34   A(5,7,9)               93.74           -DE/DX =    0.0                 !
 ! A35   A(6,7,10)              93.74           -DE/DX =    0.0                 !
 ! A36   A(9,7,10)             113.4236         -DE/DX =    0.0                 !
 ! D1    D(2,1,5,8)           -113.797          -DE/DX =    0.0                 !
 ! D2    D(2,1,5,10)             0.0            -DE/DX =    0.0                 !
 ! D3    D(3,1,5,8)              0.0            -DE/DX =    0.0                 !
 ! D4    D(3,1,5,10)           113.797          -DE/DX =    0.0                 !
 ! D5    D(2,1,6,8)            113.797          -DE/DX =    0.0                 !
 ! D6    D(2,1,6,9)              0.0            -DE/DX =    0.0                 !
 ! D7    D(4,1,6,8)              0.0            -DE/DX =    0.0                 !
 ! D8    D(4,1,6,9)           -113.797          -DE/DX =    0.0                 !
 ! D9    D(3,1,7,9)              0.0            -DE/DX =    0.0                 !
 ! D10   D(3,1,7,10)          -113.797          -DE/DX =    0.0                 !
 ! D11   D(4,1,7,9)            113.797          -DE/DX =    0.0                 !
 ! D12   D(4,1,7,10)             0.0            -DE/DX =    0.0                 !
 ! D13   D(4,5,6,3)              0.0            -DE/DX =    0.0                 !
 ! D14   D(4,5,6,9)            113.797          -DE/DX =    0.0                 !
 ! D15   D(10,5,6,3)          -113.797          -DE/DX =    0.0                 !
 ! D16   D(10,5,6,9)             0.0            -DE/DX =    0.0                 !
 ! D17   D(4,5,7,2)              0.0            -DE/DX =    0.0                 !
 ! D18   D(4,5,7,9)           -113.797          -DE/DX =    0.0                 !
 ! D19   D(8,5,7,2)            113.797          -DE/DX =    0.0                 !
 ! D20   D(8,5,7,9)              0.0            -DE/DX =    0.0                 !
 ! D21   D(3,6,7,2)              0.0            -DE/DX =    0.0                 !
 ! D22   D(3,6,7,10)           113.797          -DE/DX =    0.0                 !
 ! D23   D(8,6,7,2)           -113.797          -DE/DX =    0.0                 !
 ! D24   D(8,6,7,10)             0.0            -DE/DX =    0.0                 !
 --------------------------------------------------------------------------------
 GradGradGradGradGradGradGradGradGradGradGradGradGradGradGradGradGradGrad

 Dipole is zero, so no output in dipole orientation.

 ----------------------------------------------------------------------

 Electric dipole moment (input orientation):
 (Debye = 10**-18 statcoulomb cm , SI units = C m)
                  (au)            (Debye)         (10**-30 SI)
   Tot        0.000000D+00      0.000000D+00      0.000000D+00
   x          0.000000D+00      0.000000D+00      0.000000D+00
   y          0.000000D+00      0.000000D+00      0.000000D+00
   z          0.000000D+00      0.000000D+00      0.000000D+00

 Dipole polarizability, Alpha (input orientation).
 (esu units = cm**3 , SI units = C**2 m**2 J**-1)
 Alpha(0;0):
               (au)            (10**-24 esu)      (10**-40 SI)
   iso        0.828901D+02      0.122830D+02      0.136667D+02
   aniso      0.000000D+00      0.000000D+00      0.000000D+00
   xx         0.828901D+02      0.122830D+02      0.136667D+02
   yx         0.000000D+00      0.000000D+00      0.000000D+00
   yy         0.828901D+02      0.122830D+02      0.136667D+02
   zx         0.000000D+00      0.000000D+00      0.000000D+00
   zy         0.000000D+00      0.000000D+00      0.000000D+00
   zz         0.828901D+02      0.122830D+02      0.136667D+02

 ----------------------------------------------------------------------
 Unable to Open any file for archive entry.
 1\1\GINC-NODE167\Freq\RM062X\Aug-CC-pVDZ\Al4O6\XIONG\01-Jul-2025\0\\#N
  Geom=AllCheck Guess=TCheck SCRF=Check GenChk RM062X/Aug-CC-pVDZ Freq\
 \Title Card Required\\0,1\Al,-0.951738688,0.951738688,0.951738688\O,0.
 ,2.0645828645,0.\O,-2.0645828645,0.,0.\O,0.,0.,2.0645828645\Al,0.95173
 8688,-0.951738688,0.951738688\Al,-0.951738688,-0.951738688,-0.95173868
 8\Al,0.951738688,0.951738688,-0.951738688\O,0.,-2.0645828645,0.\O,0.,0
 .,-2.0645828645\O,2.0645828645,0.,0.\\Version=ES64L-G16RevC.01\State=1
 -A1\HF=-1421.4151944\RMSD=3.753e-10\RMSF=7.665e-05\ZeroPoint=0.0294765
 \Thermal=0.038374\ETot=-1421.3768204\HTot=-1421.3758762\GTot=-1421.417
 2272\Dipole=0.,0.,0.\DipoleDeriv=1.4914524,0.0378711,0.0378711,0.03787
 11,1.4914524,-0.0378711,0.0378711,-0.0378711,1.4914524,-0.9399627,0.,0
 .1734112,0.,-1.1029795,0.,0.1734112,0.,-0.9399627,-1.1029795,0.,0.,0.,
 -0.9399627,-0.1734112,0.,-0.1734112,-0.9399627,-0.9399627,0.1734112,0.
 ,0.1734112,-0.9399627,0.,0.,0.,-1.1029795,1.4914524,0.0378711,-0.03787
 11,0.0378711,1.4914524,0.0378711,-0.0378711,0.0378711,1.4914524,1.4914
 524,-0.0378711,-0.0378711,-0.0378711,1.4914524,-0.0378711,-0.0378711,-
 0.0378711,1.4914524,1.4914524,-0.0378711,0.0378711,-0.0378711,1.491452
 4,0.0378711,0.0378711,0.0378711,1.4914524,-0.9399627,0.,-0.1734112,0.,
 -1.1029795,0.,-0.1734112,0.,-0.9399627,-0.9399627,-0.1734112,0.,-0.173
 4112,-0.9399627,0.,0.,0.,-1.1029795,-1.1029795,0.,0.,0.,-0.9399627,0.1
 734112,0.,0.1734112,-0.9399627\Polar=82.8901004,0.,82.8901003,0.,0.,82
 .8901004\Quadrupole=0.,0.,0.,0.,0.,0.\PG=TD [4C3(Al1),3C2(O1.O1)]\NIma
 g=0\\0.27519241,0.04362020,0.27519241,0.04362020,-0.04362020,0.2751924
 0,-0.07611205,-0.05815844,0.05183642,0.15507706,-0.05644287,-0.0998580
 1,0.05644287,0.,0.20354661,0.05183643,0.05815844,-0.07611205,-0.107060
 48,0.,0.15507706,-0.09985801,-0.05644287,-0.05644286,-0.00304675,-0.00
 892604,-0.00175775,0.20354661,-0.05815844,-0.07611206,-0.05183642,-0.0
 2007085,-0.00304675,0.00368706,0.,0.15507706,-0.05815844,-0.05183642,-
 0.07611206,-0.00368706,0.00175774,0.01020280,0.,0.10706048,0.15507706,
 -0.07611206,0.05183642,-0.05815844,0.01020280,-0.00175774,-0.00368706,
 -0.00304675,-0.00368706,-0.02007084,0.15507706,0.05183642,-0.07611206,
 0.05815844,-0.00368706,-0.00304675,0.02007085,-0.00175774,0.01020281,0
 .00368706,-0.10706048,0.15507706,-0.05644286,0.05644287,-0.09985801,-0
 .00175775,0.00892604,-0.00304675,-0.00892604,0.00175774,-0.00304675,0.
 ,0.,0.20354661,-0.01303030,0.03200301,-0.00438584,-0.01172379,-0.00057
 918,0.00713862,0.00454624,-0.00514052,0.00514052,-0.07611205,0.0518364
 2,0.05644287,0.27519241,0.03200301,-0.01303029,0.00438584,-0.00514052,
 0.00454624,-0.00514052,-0.00057918,-0.01172379,-0.00713863,0.05183642,
 -0.07611205,-0.05644287,0.04362020,0.27519241,0.00438584,-0.00438584,0
 .02185165,0.00713862,-0.00057918,-0.01172379,0.00057918,-0.00713863,-0
 .01172380,0.05815844,-0.05815844,-0.09985801,-0.04362020,0.04362020,0.
 27519240,0.02185165,0.00438583,0.00438584,-0.01172379,0.00057918,0.007
 13862,-0.09985801,0.05815844,0.05815844,-0.01172380,0.00713863,0.00057
 918,-0.01303029,-0.00438584,-0.03200301,0.27519241,-0.00438583,-0.0130
 3029,-0.03200301,0.00514052,0.00454624,0.00514052,0.05644287,-0.076112
 05,-0.05183642,0.00713863,-0.01172379,0.00057918,0.00438584,0.02185165
 ,0.00438584,-0.04362020,0.27519241,-0.00438584,-0.03200301,-0.01303030
 ,0.00713862,0.00057918,-0.01172379,0.05644287,-0.05183642,-0.07611205,
 0.00514052,0.00514052,0.00454624,-0.03200301,-0.00438584,-0.01303029,-
 0.04362020,-0.04362020,0.27519240,-0.01303029,-0.00438584,0.03200301,-
 0.07611205,0.05644287,0.05183642,0.00454624,0.00514052,-0.00514052,-0.
 01172380,0.00713863,-0.00057918,0.02185165,0.00438583,-0.00438584,-0.0
 1303030,-0.03200301,0.00438584,0.27519241,0.00438584,0.02185165,-0.004
 38584,0.05815844,-0.09985801,-0.05815844,0.00057918,-0.01172380,-0.007
 13862,0.00713862,-0.01172380,-0.00057918,-0.00438583,-0.01303029,0.032
 00301,-0.03200301,-0.01303029,0.00438584,-0.04362020,0.27519241,0.0320
 0301,0.00438584,-0.01303029,0.05183642,-0.05644287,-0.07611205,-0.0005
 7918,-0.00713863,-0.01172380,-0.00514052,-0.00514052,0.00454624,0.0043
 8584,0.03200301,-0.01303030,-0.00438584,-0.00438584,0.02185165,0.04362
 020,0.04362020,0.27519240,-0.01172379,-0.00514052,-0.00713862,0.006282
 52,0.,0.,-0.00304675,0.02007085,0.00368706,0.01020280,-0.00368706,0.00
 175774,-0.07611205,-0.05815844,-0.05183642,-0.07611205,0.05815844,-0.0
 5183642,-0.01172379,0.00514052,-0.00713862,0.15507706,-0.00057918,0.00
 454624,0.00057918,0.,-0.00073607,0.,0.00892604,-0.00304675,0.00175775,
 -0.00175775,-0.00304675,-0.00892604,-0.05644287,-0.09985801,-0.0564428
 7,0.05644287,-0.09985801,0.05644287,0.00057918,0.00454624,-0.00057918,
 0.,0.20354661,-0.00713862,0.00514052,-0.01172379,0.,0.,0.00628252,0.00
 175775,0.00368706,0.01020280,0.00368706,-0.02007085,-0.00304675,-0.051
 83642,-0.05815844,-0.07611205,-0.05183643,0.05815844,-0.07611205,-0.00
 713862,-0.00514052,-0.01172379,0.10706048,0.,0.15507706,-0.01172380,-0
 .00713863,-0.00514052,0.01020280,0.00175775,-0.00368706,-0.00304675,0.
 00368706,0.02007085,0.00628252,0.,0.,-0.01172380,-0.00713862,0.0051405
 2,-0.07611206,-0.05183642,0.05815844,-0.07611205,-0.05183642,-0.058158
 44,0.01020280,0.00175774,0.00368706,0.15507706,-0.00713863,-0.01172379
 ,0.00514052,0.00368706,-0.00304675,-0.02007085,0.00175774,0.01020280,0
 .00368706,0.,0.00628252,0.,-0.00713863,-0.01172380,-0.00514052,-0.0518
 3642,-0.07611206,0.05815844,-0.05183642,-0.07611205,-0.05815844,0.0036
 8706,-0.00304675,0.02007085,0.10706048,0.15507706,-0.00057918,0.000579
 18,0.00454624,-0.00175774,-0.00892604,-0.00304675,0.00892604,0.0017577
 5,-0.00304675,0.,0.,-0.00073607,0.00057918,-0.00057918,0.00454624,0.05
 644286,0.05644287,-0.09985801,-0.05644287,-0.05644287,-0.09985801,0.00
 175775,0.00892604,-0.00304675,0.,0.,0.20354661,0.00454624,-0.00057918,
 -0.00057918,-0.00304675,0.00892604,-0.00175774,-0.00073607,0.,0.,-0.00
 304675,-0.00175775,0.00892604,-0.09985801,-0.05644287,0.05644286,0.004
 54624,0.00057918,0.00057918,-0.09985801,0.05644287,-0.05644287,-0.0030
 4675,-0.00892604,0.00175774,-0.00304675,0.00175775,-0.00892604,0.20354
 661,-0.00514052,-0.01172379,0.00713863,0.02007085,-0.00304675,-0.00368
 706,0.,0.00628252,0.,-0.00368706,0.01020280,-0.00175774,-0.05815844,-0
 .07611206,0.05183642,0.00514052,-0.01172380,0.00713863,0.05815844,-0.0
 7611205,0.05183642,-0.02007084,-0.00304675,-0.00368706,0.00368706,0.01
 020280,-0.00175775,0.,0.15507706,-0.00514052,0.00713863,-0.01172380,-0
 .00368706,-0.00175775,0.01020280,0.,0.,0.00628252,0.02007085,-0.003687
 06,-0.00304675,0.05815844,0.05183642,-0.07611206,0.00514052,0.00713862
 ,-0.01172380,-0.05815844,0.05183642,-0.07611205,0.00368706,-0.00175774
 ,0.01020281,-0.02007085,-0.00368706,-0.00304675,0.,-0.10706048,0.15507
 706\\0.00012087,-0.00012087,-0.00012087,0.,-0.00001251,0.,0.00001251,0
 .,0.,0.,0.,-0.00001251,-0.00012087,0.00012087,-0.00012087,0.00012087,0
 .00012087,0.00012087,-0.00012087,-0.00012087,0.00012087,0.,0.00001251,
 0.,0.,0.,0.00001251,-0.00001251,0.,0.\\\@
 The archive entry for this job was punched.


 EXPERIMENTALISTS THINK SILICON IS REALLY FUN TO USE
     ITS PLACE IN NOVEL COMPOUNDS IS CERTAIN TO AMUSE
 THEY SIT ALL DAY IN LABORATORIES MAKING ALL THIS SLUDGE
     "LOADED WITH THE SILICON THEY SAY", TO ME IT LOOKS LIKE FUDGE.
 FOR HAPPY THOUGH THEY BE WITH CRUD, I'D LIKE TO KNOW A LITTLE
      ABOUT THE PI BONDS ON THE EDGE AND SIGMAS IN THE MIDDLE.

 SO LETS DERIVE A WAVEFUNCTION.....6-31G*
     USE AN OPTIMAL GEOMETRY AND SEE WHERE ELECTRONS ARE.
 BUT WHAT OF CORRELATION?  ASKS THE WIRY LITTLE SKEPTIC.
     WE'LL THROW IN PERTURBATION AS AN ELECTRON ANTISEPTIC.
 AND WHEN THE PROGRAM GIVES US ANSWERS IN THEM WE CAN TRUST
     SINCE NOBODY CAN MAKE THE STUFF, WE HAVE NO CHOICE, WE MUST.

 SO THEORY GUYS HAVE GOT IT MADE, IN ROOMS FREE OF POLLUTION.
     INSTEAD OF PROBLEMS WITH THE REFLUX, THEY HAVE ONLY SOLUTIONS.
 AND WHEN THE FEDS ANNOUNCE THE LIST OF CARCINOGENIC TERRORS,
     THE THEORISTS SIT SAFELY AT THEIR TERMINALS FIXING ERRORS.
 IN OTHER WORDS, EXPERIMENTALISTS WILL LIKELY DIE OF CANCER
     FROM WORKING HARD YET FRUITLESSLY...TILL THEORY GIVES THE ANSWER.
          -- THOMAS A. HOLME, 1983
 Job cpu time:       0 days  0 hours 40 minutes 59.2 seconds.
 Elapsed time:       0 days  0 hours  0 minutes 38.9 seconds.
 File lengths (MBytes):  RWF=     58 Int=      0 D2E=      0 Chk=      6 Scr=      1
 Normal termination of Gaussian 16 at Tue Jul  1 22:41:15 2025.
