 Entering Gaussian System, Link 0=g16
 Initial command:
 /home/g16/g16/l1.exe "/home/xiong/AlLi/Gau-19496.inp" -scrdir="/home/xiong/AlLi/"
 Entering Link 1 = /home/g16/g16/l1.exe PID=     19497.
  
 Copyright (c) 1988-2019, Gaussian, Inc.  All Rights Reserved.
  
 This is part of the Gaussian(R) 16 program.  It is based on
 the Gaussian(R) 09 system (copyright 2009, Gaussian, Inc.),
 the Gaussian(R) 03 system (copyright 2003, Gaussian, Inc.),
 the Gaussian(R) 98 system (copyright 1998, Gaussian, Inc.),
 the Gaussian(R) 94 system (copyright 1995, Gaussian, Inc.),
 the Gaussian 92(TM) system (copyright 1992, Gaussian, Inc.),
 the Gaussian 90(TM) system (copyright 1990, Gaussian, Inc.),
 the Gaussian 88(TM) system (copyright 1988, Gaussian, Inc.),
 the Gaussian 86(TM) system (copyright 1986, Carnegie Mellon
 University), and the Gaussian 82(TM) system (copyright 1983,
 Carnegie Mellon University). Gaussian is a federally registered
 trademark of Gaussian, Inc.
  
 This software contains proprietary and confidential information,
 including trade secrets, belonging to Gaussian, Inc.
  
 This software is provided under written license and may be
 used, copied, transmitted, or stored only in accord with that
 written license.
  
 The following legend is applicable only to US Government
 contracts under FAR:
  
                    RESTRICTED RIGHTS LEGEND
  
 Use, reproduction and disclosure by the US Government is
 subject to restrictions as set forth in subparagraphs (a)
 and (c) of the Commercial Computer Software - Restricted
 Rights clause in FAR 52.227-19.
  
 Gaussian, Inc.
 340 Quinnipiac St., Bldg. 40, Wallingford CT 06492
  
  
 ---------------------------------------------------------------
 Warning -- This program may not be used in any manner that
 competes with the business of Gaussian, Inc. or will provide
 assistance to any competitor of Gaussian, Inc.  The licensee
 of this program is prohibited from giving any competitor of
 Gaussian, Inc. access to this program.  By using this program,
 the user acknowledges that Gaussian, Inc. is engaged in the
 business of creating and licensing software in the field of
 computational chemistry and represents and warrants to the
 licensee that it is not a competitor of Gaussian, Inc. and that
 it will not use this program in any manner prohibited above.
 ---------------------------------------------------------------
  

 Cite this work as:
 Gaussian 16, Revision C.01,
 M. J. Frisch, G. W. Trucks, H. B. Schlegel, G. E. Scuseria, 
 M. A. Robb, J. R. Cheeseman, G. Scalmani, V. Barone, 
 G. A. Petersson, H. Nakatsuji, X. Li, M. Caricato, A. V. Marenich, 
 J. Bloino, B. G. Janesko, R. Gomperts, B. Mennucci, H. P. Hratchian, 
 J. V. Ortiz, A. F. Izmaylov, J. L. Sonnenberg, D. Williams-Young, 
 F. Ding, F. Lipparini, F. Egidi, J. Goings, B. Peng, A. Petrone, 
 T. Henderson, D. Ranasinghe, V. G. Zakrzewski, J. Gao, N. Rega, 
 G. Zheng, W. Liang, M. Hada, M. Ehara, K. Toyota, R. Fukuda, 
 J. Hasegawa, M. Ishida, T. Nakajima, Y. Honda, O. Kitao, H. Nakai, 
 T. Vreven, K. Throssell, J. A. Montgomery, Jr., J. E. Peralta, 
 F. Ogliaro, M. J. Bearpark, J. J. Heyd, E. N. Brothers, K. N. Kudin, 
 V. N. Staroverov, T. A. Keith, R. Kobayashi, J. Normand, 
 K. Raghavachari, A. P. Rendell, J. C. Burant, S. S. Iyengar, 
 J. Tomasi, M. Cossi, J. M. Millam, M. Klene, C. Adamo, R. Cammi, 
 J. W. Ochterski, R. L. Martin, K. Morokuma, O. Farkas, 
 J. B. Foresman, and D. J. Fox, Gaussian, Inc., Wallingford CT, 2019.
 
 ******************************************
 Gaussian 16:  ES64L-G16RevC.01  3-Jul-2019
                 1-Jul-2025 
 ******************************************
 %chk=h2o-ts1.chk
 %mem=50GB
 %nprocshared=64
 Will use up to   64 processors via shared memory.
 ------------------------------------------------
 # opt=(calcfc,ts,noeigen) freq m062x/aug-cc-pvdz
 ------------------------------------------------
 1/5=1,10=4,11=1,18=20,26=3,38=1/1,3;
 2/9=110,12=2,17=6,18=5,40=1/2;
 3/5=16,7=10,11=2,25=1,30=1,71=2,74=-55,140=1/1,2,3;
 4//1;
 5/5=2,38=5/2;
 8/6=4,10=90,11=11/1;
 11/6=1,8=1,9=11,15=111,16=1/1,2,10;
 10/6=1,13=1/2;
 6/7=2,8=2,9=2,10=2,28=1/1;
 7/10=1,25=1/1,2,3,16;
 1/5=1,10=4,11=1,18=20,26=3/3(2);
 2/9=110/2;
 99//99;
 2/9=110/2;
 3/5=16,7=10,11=2,25=1,30=1,71=1,74=-55/1,2,3;
 4/5=5,16=3,69=1/1;
 5/5=2,38=5/2;
 7//1,2,3,16;
 1/5=1,11=1,18=20,26=3/3(-5);
 2/9=110/2;
 6/7=2,8=2,9=2,10=2,19=2,28=1/1;
 99/9=1/99;
 -------------------
 Title Card Required
 -------------------
 Symbolic Z-matrix:
 Charge =  0 Multiplicity = 1
 Al                   0    -0.87746   1.40264   0.75592 
 O                    0     0.80243   1.68163   0.5088 
 O                    0    -1.8059    1.30828  -0.70638 
 O                    0    -1.19157   0.08277   1.84432 
 Al                   0    -0.60053  -1.26186   0.93327 
 Al                   0    -1.12602  -0.11117  -1.43794 
 Al                   0     1.40341   0.30504  -0.3837 
 O                    0    -1.46213  -1.5579   -0.53429 
 O                    0     0.53187   0.04875  -1.86771 
 O                    0     1.11076  -1.22453   0.70609 
 O                    0     3.09968  -0.30524  -0.00605 
 H                    0     3.70366   0.21622   0.54241 
 H                    0     2.39089  -1.03149   0.59925 
 
 Add virtual bond connecting atoms H13        and O10        Dist= 2.45D+00.
 Add virtual bond connecting atoms H13        and O11        Dist= 2.23D+00.

 GradGradGradGradGradGradGradGradGradGradGradGradGradGradGradGradGradGrad
 Berny optimization.
 Initialization pass.
                           ----------------------------
                           !    Initial Parameters    !
                           ! (Angstroms and Degrees)  !
 --------------------------                            --------------------------
 ! Name  Definition              Value          Derivative Info.                !
 --------------------------------------------------------------------------------
 ! R1    R(1,2)                  1.7207         calculate D2E/DX2 analytically  !
 ! R2    R(1,3)                  1.7347         calculate D2E/DX2 analytically  !
 ! R3    R(1,4)                  1.7393         calculate D2E/DX2 analytically  !
 ! R4    R(1,5)                  2.6847         calculate D2E/DX2 analytically  !
 ! R5    R(1,6)                  2.677          calculate D2E/DX2 analytically  !
 ! R6    R(1,7)                  2.7759         calculate D2E/DX2 analytically  !
 ! R7    R(2,7)                  1.7472         calculate D2E/DX2 analytically  !
 ! R8    R(3,6)                  1.7356         calculate D2E/DX2 analytically  !
 ! R9    R(4,5)                  1.7284         calculate D2E/DX2 analytically  !
 ! R10   R(5,6)                  2.6875         calculate D2E/DX2 analytically  !
 ! R11   R(5,7)                  2.8645         calculate D2E/DX2 analytically  !
 ! R12   R(5,8)                  1.7273         calculate D2E/DX2 analytically  !
 ! R13   R(5,10)                 1.7267         calculate D2E/DX2 analytically  !
 ! R14   R(6,7)                  2.7718         calculate D2E/DX2 analytically  !
 ! R15   R(6,8)                  1.7386         calculate D2E/DX2 analytically  !
 ! R16   R(6,9)                  1.7201         calculate D2E/DX2 analytically  !
 ! R17   R(7,9)                  1.74           calculate D2E/DX2 analytically  !
 ! R18   R(7,10)                 1.9008         calculate D2E/DX2 analytically  !
 ! R19   R(7,11)                 1.8418         calculate D2E/DX2 analytically  !
 ! R20   R(10,13)                1.299          calculate D2E/DX2 analytically  !
 ! R21   R(11,12)                0.9683         calculate D2E/DX2 analytically  !
 ! R22   R(11,13)                1.1816         calculate D2E/DX2 analytically  !
 ! A1    A(2,1,3)              114.2214         calculate D2E/DX2 analytically  !
 ! A2    A(2,1,4)              112.9045         calculate D2E/DX2 analytically  !
 ! A3    A(2,1,5)               93.9964         calculate D2E/DX2 analytically  !
 ! A4    A(2,1,6)               93.7057         calculate D2E/DX2 analytically  !
 ! A5    A(3,1,4)              112.9268         calculate D2E/DX2 analytically  !
 ! A6    A(3,1,5)               93.2621         calculate D2E/DX2 analytically  !
 ! A7    A(3,1,7)               94.1394         calculate D2E/DX2 analytically  !
 ! A8    A(4,1,6)               93.8381         calculate D2E/DX2 analytically  !
 ! A9    A(4,1,7)               96.0406         calculate D2E/DX2 analytically  !
 ! A10   A(1,5,8)               93.5847         calculate D2E/DX2 analytically  !
 ! A11   A(1,5,10)              94.1337         calculate D2E/DX2 analytically  !
 ! A12   A(4,5,6)               93.7336         calculate D2E/DX2 analytically  !
 ! A13   A(4,5,7)               93.2114         calculate D2E/DX2 analytically  !
 ! A14   A(4,5,8)              114.2425         calculate D2E/DX2 analytically  !
 ! A15   A(4,5,10)             113.0436         calculate D2E/DX2 analytically  !
 ! A16   A(6,5,10)              93.9248         calculate D2E/DX2 analytically  !
 ! A17   A(7,5,8)               92.9859         calculate D2E/DX2 analytically  !
 ! A18   A(8,5,10)             112.7229         calculate D2E/DX2 analytically  !
 ! A19   A(1,6,8)               93.5867         calculate D2E/DX2 analytically  !
 ! A20   A(1,6,9)               93.5946         calculate D2E/DX2 analytically  !
 ! A21   A(3,6,5)               93.1454         calculate D2E/DX2 analytically  !
 ! A22   A(3,6,7)               94.2643         calculate D2E/DX2 analytically  !
 ! A23   A(3,6,8)              112.6905         calculate D2E/DX2 analytically  !
 ! A24   A(3,6,9)              114.0062         calculate D2E/DX2 analytically  !
 ! A25   A(5,6,9)               94.117          calculate D2E/DX2 analytically  !
 ! A26   A(7,6,8)               95.9517         calculate D2E/DX2 analytically  !
 ! A27   A(8,6,9)              113.176          calculate D2E/DX2 analytically  !
 ! A28   A(1,7,9)               89.8177         calculate D2E/DX2 analytically  !
 ! A29   A(1,7,10)              87.4949         calculate D2E/DX2 analytically  !
 ! A30   A(1,7,11)             143.4703         calculate D2E/DX2 analytically  !
 ! A31   A(2,7,5)               87.4488         calculate D2E/DX2 analytically  !
 ! A32   A(2,7,6)               89.9255         calculate D2E/DX2 analytically  !
 ! A33   A(2,7,9)              112.2982         calculate D2E/DX2 analytically  !
 ! A34   A(2,7,10)             106.749          calculate D2E/DX2 analytically  !
 ! A35   A(2,7,11)             118.2356         calculate D2E/DX2 analytically  !
 ! A36   A(5,7,9)               87.7726         calculate D2E/DX2 analytically  !
 ! A37   A(5,7,11)             111.64           calculate D2E/DX2 analytically  !
 ! A38   A(6,7,10)              87.5201         calculate D2E/DX2 analytically  !
 ! A39   A(6,7,11)             150.3054         calculate D2E/DX2 analytically  !
 ! A40   A(9,7,10)             107.0587         calculate D2E/DX2 analytically  !
 ! A41   A(9,7,11)             125.971          calculate D2E/DX2 analytically  !
 ! A42   A(10,7,11)             75.972          calculate D2E/DX2 analytically  !
 ! A43   A(7,10,13)             71.4295         calculate D2E/DX2 analytically  !
 ! A44   A(7,11,12)            120.8092         calculate D2E/DX2 analytically  !
 ! A45   A(7,11,13)             75.8921         calculate D2E/DX2 analytically  !
 ! A46   A(12,11,13)           114.5204         calculate D2E/DX2 analytically  !
 ! A47   A(10,13,11)           136.4356         calculate D2E/DX2 analytically  !
 ! A48   L(5,10,13,2,-1)       172.933          calculate D2E/DX2 analytically  !
 ! A49   L(5,10,13,2,-2)       176.6553         calculate D2E/DX2 analytically  !
 ! D1    D(2,1,5,8)           -112.9597         calculate D2E/DX2 analytically  !
 ! D2    D(2,1,5,10)             0.1548         calculate D2E/DX2 analytically  !
 ! D3    D(3,1,5,8)              1.6172         calculate D2E/DX2 analytically  !
 ! D4    D(3,1,5,10)           114.7316         calculate D2E/DX2 analytically  !
 ! D5    D(2,1,6,8)            113.3197         calculate D2E/DX2 analytically  !
 ! D6    D(2,1,6,9)             -0.1988         calculate D2E/DX2 analytically  !
 ! D7    D(4,1,6,8)              0.0391         calculate D2E/DX2 analytically  !
 ! D8    D(4,1,6,9)           -113.4794         calculate D2E/DX2 analytically  !
 ! D9    D(3,1,7,9)             -4.1132         calculate D2E/DX2 analytically  !
 ! D10   D(3,1,7,10)          -111.1971         calculate D2E/DX2 analytically  !
 ! D11   D(3,1,7,11)          -173.3785         calculate D2E/DX2 analytically  !
 ! D12   D(4,1,7,9)            109.4908         calculate D2E/DX2 analytically  !
 ! D13   D(4,1,7,10)             2.4069         calculate D2E/DX2 analytically  !
 ! D14   D(4,1,7,11)           -59.7745         calculate D2E/DX2 analytically  !
 ! D15   D(4,5,6,3)             -1.6478         calculate D2E/DX2 analytically  !
 ! D16   D(4,5,6,9)            112.7115         calculate D2E/DX2 analytically  !
 ! D17   D(10,5,6,3)          -115.08           calculate D2E/DX2 analytically  !
 ! D18   D(10,5,6,9)            -0.7206         calculate D2E/DX2 analytically  !
 ! D19   D(4,5,7,2)             -0.8797         calculate D2E/DX2 analytically  !
 ! D20   D(4,5,7,9)           -113.3264         calculate D2E/DX2 analytically  !
 ! D21   D(4,5,7,11)           118.5791         calculate D2E/DX2 analytically  !
 ! D22   D(8,5,7,2)            113.6227         calculate D2E/DX2 analytically  !
 ! D23   D(8,5,7,9)              1.176          calculate D2E/DX2 analytically  !
 ! D24   D(8,5,7,11)          -126.9184         calculate D2E/DX2 analytically  !
 ! D25   D(1,5,13,11)          -33.7457         calculate D2E/DX2 analytically  !
 ! D26   D(4,5,13,11)          -69.2496         calculate D2E/DX2 analytically  !
 ! D27   D(6,5,13,11)           26.0375         calculate D2E/DX2 analytically  !
 ! D28   D(8,5,13,11)           60.6924         calculate D2E/DX2 analytically  !
 ! D29   D(3,6,7,2)              4.3749         calculate D2E/DX2 analytically  !
 ! D30   D(3,6,7,10)           111.1434         calculate D2E/DX2 analytically  !
 ! D31   D(3,6,7,11)           166.6909         calculate D2E/DX2 analytically  !
 ! D32   D(8,6,7,2)           -108.9968         calculate D2E/DX2 analytically  !
 ! D33   D(8,6,7,10)            -2.2282         calculate D2E/DX2 analytically  !
 ! D34   D(8,6,7,11)            53.3193         calculate D2E/DX2 analytically  !
 ! D35   D(1,7,10,13)         -144.4813         calculate D2E/DX2 analytically  !
 ! D36   D(2,7,10,13)         -113.0692         calculate D2E/DX2 analytically  !
 ! D37   D(6,7,10,13)          157.7555         calculate D2E/DX2 analytically  !
 ! D38   D(9,7,10,13)          126.4787         calculate D2E/DX2 analytically  !
 ! D39   D(11,7,10,13)           2.6559         calculate D2E/DX2 analytically  !
 ! D40   D(1,7,11,12)          -47.6325         calculate D2E/DX2 analytically  !
 ! D41   D(1,7,11,13)           62.7545         calculate D2E/DX2 analytically  !
 ! D42   D(2,7,11,12)          -11.5292         calculate D2E/DX2 analytically  !
 ! D43   D(2,7,11,13)           98.8578         calculate D2E/DX2 analytically  !
 ! D44   D(5,7,11,12)         -110.6601         calculate D2E/DX2 analytically  !
 ! D45   D(5,7,11,13)           -0.2731         calculate D2E/DX2 analytically  !
 ! D46   D(6,7,11,12)         -171.36           calculate D2E/DX2 analytically  !
 ! D47   D(6,7,11,13)          -60.973          calculate D2E/DX2 analytically  !
 ! D48   D(9,7,11,12)          145.6732         calculate D2E/DX2 analytically  !
 ! D49   D(9,7,11,13)         -103.9398         calculate D2E/DX2 analytically  !
 ! D50   D(10,7,11,12)        -113.241          calculate D2E/DX2 analytically  !
 ! D51   D(10,7,11,13)          -2.854          calculate D2E/DX2 analytically  !
 ! D52   D(7,10,13,11)          -5.8359         calculate D2E/DX2 analytically  !
 ! D53   D(7,11,13,10)           5.8867         calculate D2E/DX2 analytically  !
 ! D54   D(12,11,13,10)        123.6496         calculate D2E/DX2 analytically  !
 --------------------------------------------------------------------------------
 Trust Radius=3.00D-01 FncErr=1.00D-07 GrdErr=1.00D-06 EigMax=2.50D+02 EigMin=1.00D-04
 Number of steps in this run=    100 maximum allowed number of steps=    100.
 Search for a saddle point of order  1.
 GradGradGradGradGradGradGradGradGradGradGradGradGradGradGradGradGradGrad

                          Input orientation:                          
 ---------------------------------------------------------------------
 Center     Atomic      Atomic             Coordinates (Angstroms)
 Number     Number       Type             X           Y           Z
 ---------------------------------------------------------------------
      1         13           0       -0.877464    1.402640    0.755923
      2          8           0        0.802428    1.681625    0.508799
      3          8           0       -1.805902    1.308276   -0.706379
      4          8           0       -1.191566    0.082766    1.844321
      5         13           0       -0.600532   -1.261858    0.933265
      6         13           0       -1.126018   -0.111171   -1.437937
      7         13           0        1.403414    0.305036   -0.383705
      8          8           0       -1.462131   -1.557904   -0.534293
      9          8           0        0.531871    0.048746   -1.867711
     10          8           0        1.110760   -1.224527    0.706094
     11          8           0        3.099680   -0.305238   -0.006049
     12          1           0        3.703663    0.216222    0.542412
     13          1           0        2.390893   -1.031492    0.599249
 ---------------------------------------------------------------------
                    Distance matrix (angstroms):
                    1          2          3          4          5
     1  Al   0.000000
     2  O    1.720738   0.000000
     3  O    1.734713   2.901626   0.000000
     4  O    1.739350   2.883744   2.895748   0.000000
     5  Al   2.684714   3.288245   3.278252   1.728397   0.000000
     6  Al   2.677018   3.274569   1.735583   3.288636   2.687530
     7  Al   2.775949   1.747211   3.377916   3.427452   2.864501
     8  O    3.281968   4.087887   2.891847   2.902208   1.727346
     9  O    3.271499   2.896083   2.898325   4.092746   3.293248
    10  O    3.295076   2.929115   4.113039   2.881888   1.726707
    11  O    4.394898   3.080594   5.211394   4.689266   3.935607
    12  H    4.737077   3.250492   5.753900   5.067153   4.567666
    13  H    4.078199   3.145220   4.979184   3.952947   3.018817
                    6          7          8          9         10
     6  Al   0.000000
     7  Al   2.771761   0.000000
     8  O    1.738557   3.421194   0.000000
     9  O    1.720138   1.739984   2.887104   0.000000
    10  O    3.292356   1.900756   2.875668   2.929302   0.000000
    11  O    4.465926   1.841841   4.760077   3.191353   2.303920
    12  H    5.230181   2.481275   5.567068   3.987105   2.970808
    13  H    4.167228   1.930705   4.050657   3.272426   1.299008
                   11         12         13
    11  O    0.000000
    12  H    0.968259   0.000000
    13  H    1.181613   1.812011   0.000000
 Stoichiometry    Al4H2O7
 Framework group  C1[X(Al4H2O7)]
 Deg. of freedom    33
 Full point group                 C1      NOp   1
 Largest Abelian subgroup         C1      NOp   1
 Largest concise Abelian subgroup C1      NOp   1
                         Standard orientation:                         
 ---------------------------------------------------------------------
 Center     Atomic      Atomic             Coordinates (Angstroms)
 Number     Number       Type             X           Y           Z
 ---------------------------------------------------------------------
      1         13           0        0.971959   -0.522226    1.412943
      2          8           0       -0.672232   -1.027633    1.459212
      3          8           0        1.915441   -1.282165    0.171346
      4          8           0        1.149225    1.207923    1.435361
      5         13           0        0.459758    1.643653   -0.088493
      6         13           0        1.127618   -0.683757   -1.254659
      7         13           0       -1.374750   -0.556253   -0.069518
      8          8           0        1.319122    1.032386   -1.456547
      9          8           0       -0.501699   -1.207939   -1.426218
     10          8           0       -1.237216    1.336577   -0.175113
     11          8           0       -3.124589    0.018401   -0.084102
     12          1           0       -3.690666   -0.096100    0.693054
     13          1           0       -2.493361    1.017273   -0.088127
 ---------------------------------------------------------------------
 Rotational constants (GHZ):           1.0766039           0.7570804           0.7503036
 Standard basis: Aug-CC-pVDZ (5D, 7F)
 There are   309 symmetry adapted cartesian basis functions of A   symmetry.
 There are   287 symmetry adapted basis functions of A   symmetry.
   287 basis functions,   643 primitive gaussians,   309 cartesian basis functions
    55 alpha electrons       55 beta electrons
       nuclear repulsion energy      1103.6408535925 Hartrees.
 NAtoms=   13 NActive=   13 NUniq=   13 SFac= 1.00D+00 NAtFMM=   60 NAOKFM=F Big=F
 Integral buffers will be    131072 words long.
 Raffenetti 2 integral format.
 Two-electron integral symmetry is turned on.
 One-electron integrals computed using PRISM.
 NBasis=   287 RedAO= T EigKep=  1.01D-04  NBF=   287
 NBsUse=   287 1.00D-06 EigRej= -1.00D+00 NBFU=   287
 ExpMin= 1.53D-02 ExpMax= 6.42D+04 ExpMxC= 2.19D+03 IAcc=3 IRadAn=         5 AccDes= 0.00D+00
 Harris functional with IExCor= 1009 and IRadAn=       5 diagonalized for initial guess.
 HarFok:  IExCor= 1009 AccDes= 0.00D+00 IRadAn=         5 IDoV= 1 UseB2=F ITyADJ=14
 ICtDFT=  3500011 ScaDFX=  1.000000  1.000000  1.000000  1.000000
 FoFCou: FMM=F IPFlag=           0 FMFlag=      100000 FMFlg1=           0
         NFxFlg=           0 DoJE=T BraDBF=F KetDBF=T FulRan=T
         wScrn=  0.000000 ICntrl=       500 IOpCl=  0 I1Cent=   200000004 NGrid=           0
         NMat0=    1 NMatS0=      1 NMatT0=    0 NMatD0=    1 NMtDS0=    0 NMtDT0=    0
 Petite list used in FoFCou.
 Requested convergence on RMS density matrix=1.00D-08 within 128 cycles.
 Requested convergence on MAX density matrix=1.00D-06.
 Requested convergence on             energy=1.00D-06.
 No special actions if energy rises.
 SCF Done:  E(RM062X) =  -1497.88062814     A.U. after   13 cycles
            NFock= 13  Conv=0.43D-08     -V/T= 2.0041
 DoSCS=F DFT=T ScalE2(SS,OS)=  1.000000  1.000000
 Range of M.O.s used for correlation:     1   287
 NBasis=   287 NAE=    55 NBE=    55 NFC=     0 NFV=     0
 NROrb=    287 NOA=    55 NOB=    55 NVA=   232 NVB=   232

 **** Warning!!: The largest alpha MO coefficient is  0.28364050D+02

 Symmetrizing basis deriv contribution to polar:
 IMax=3 JMax=2 DiffMx= 0.00D+00
 G2DrvN: will do    14 centers at a time, making    1 passes.
 Calling FoFCou, ICntrl=  3107 FMM=F I1Cent=   0 AccDes= 0.00D+00.
 End of G2Drv F.D. properties file   721 does not exist.
 End of G2Drv F.D. properties file   722 does not exist.
 End of G2Drv F.D. properties file   788 does not exist.
          IDoAtm=1111111111111
          Differentiating once with respect to nuclear coordinates.
 Keep R1 ints in memory in canonical form, NReq=926979075.
          There are    42 degrees of freedom in the 1st order CPHF.  IDoFFX=6 NUNeed=     0.
     36 vectors produced by pass  0 Test12= 3.04D-14 2.38D-09 XBig12= 5.62D-02 6.38D-02.
 AX will form    36 AO Fock derivatives at one time.
     36 vectors produced by pass  1 Test12= 3.04D-14 2.38D-09 XBig12= 1.28D-02 1.64D-02.
     36 vectors produced by pass  2 Test12= 3.04D-14 2.38D-09 XBig12= 9.47D-04 7.53D-03.
     36 vectors produced by pass  3 Test12= 3.04D-14 2.38D-09 XBig12= 3.96D-05 9.32D-04.
     36 vectors produced by pass  4 Test12= 3.04D-14 2.38D-09 XBig12= 4.06D-07 6.08D-05.
     36 vectors produced by pass  5 Test12= 3.04D-14 2.38D-09 XBig12= 3.43D-09 8.96D-06.
     36 vectors produced by pass  6 Test12= 3.04D-14 2.38D-09 XBig12= 2.69D-11 4.69D-07.
     21 vectors produced by pass  7 Test12= 3.04D-14 2.38D-09 XBig12= 1.52D-13 3.10D-08.
      2 vectors produced by pass  8 Test12= 3.04D-14 2.38D-09 XBig12= 8.26D-16 2.71D-09.
 InvSVY:  IOpt=1 It=  1 EMax= 1.78D-15
 Solved reduced A of dimension   275 with    36 vectors.
 End of Minotr F.D. properties file   721 does not exist.
 End of Minotr F.D. properties file   722 does not exist.
 End of Minotr F.D. properties file   788 does not exist.

 **********************************************************************

            Population analysis using the SCF Density.

 **********************************************************************

 Orbital symmetries:
       Occupied  (A) (A) (A) (A) (A) (A) (A) (A) (A) (A) (A) (A)
                 (A) (A) (A) (A) (A) (A) (A) (A) (A) (A) (A) (A)
                 (A) (A) (A) (A) (A) (A) (A) (A) (A) (A) (A) (A)
                 (A) (A) (A) (A) (A) (A) (A) (A) (A) (A) (A) (A)
                 (A) (A) (A) (A) (A) (A) (A)
       Virtual   (A) (A) (A) (A) (A) (A) (A) (A) (A) (A) (A) (A)
                 (A) (A) (A) (A) (A) (A) (A) (A) (A) (A) (A) (A)
                 (A) (A) (A) (A) (A) (A) (A) (A) (A) (A) (A) (A)
                 (A) (A) (A) (A) (A) (A) (A) (A) (A) (A) (A) (A)
                 (A) (A) (A) (A) (A) (A) (A) (A) (A) (A) (A) (A)
                 (A) (A) (A) (A) (A) (A) (A) (A) (A) (A) (A) (A)
                 (A) (A) (A) (A) (A) (A) (A) (A) (A) (A) (A) (A)
                 (A) (A) (A) (A) (A) (A) (A) (A) (A) (A) (A) (A)
                 (A) (A) (A) (A) (A) (A) (A) (A) (A) (A) (A) (A)
                 (A) (A) (A) (A) (A) (A) (A) (A) (A) (A) (A) (A)
                 (A) (A) (A) (A) (A) (A) (A) (A) (A) (A) (A) (A)
                 (A) (A) (A) (A) (A) (A) (A) (A) (A) (A) (A) (A)
                 (A) (A) (A) (A) (A) (A) (A) (A) (A) (A) (A) (A)
                 (A) (A) (A) (A) (A) (A) (A) (A) (A) (A) (A) (A)
                 (A) (A) (A) (A) (A) (A) (A) (A) (A) (A) (A) (A)
                 (A) (A) (A) (A) (A) (A) (A) (A) (A) (A) (A) (A)
                 (A) (A) (A) (A) (A) (A) (A) (A) (A) (A) (A) (A)
                 (A) (A) (A) (A) (A) (A) (A) (A) (A) (A) (A) (A)
                 (A) (A) (A) (A) (A) (A) (A) (A) (A) (A) (A) (A)
                 (A) (A) (A) (A)
 The electronic state is 1-A.
 Alpha  occ. eigenvalues --  -56.90801 -56.89847 -56.89807 -56.89488 -19.69392
 Alpha  occ. eigenvalues --  -19.62435 -19.61139 -19.61113 -19.60761 -19.60149
 Alpha  occ. eigenvalues --  -19.60144  -4.41691  -4.40793  -4.40761  -4.39971
 Alpha  occ. eigenvalues --   -2.92204  -2.91617  -2.91589  -2.91303  -2.91258
 Alpha  occ. eigenvalues --   -2.90705  -2.90688  -2.90667  -2.90651  -2.90326
 Alpha  occ. eigenvalues --   -2.90152  -2.90028  -1.17882  -1.07367  -1.05251
 Alpha  occ. eigenvalues --   -1.03853  -1.03721  -1.02690  -1.02159  -0.67677
 Alpha  occ. eigenvalues --   -0.56290  -0.51595  -0.51101  -0.50221  -0.49713
 Alpha  occ. eigenvalues --   -0.46406  -0.44478  -0.44255  -0.43936  -0.43724
 Alpha  occ. eigenvalues --   -0.43604  -0.42545  -0.39318  -0.38593  -0.37923
 Alpha  occ. eigenvalues --   -0.37755  -0.37532  -0.35901  -0.34951  -0.34892
 Alpha virt. eigenvalues --   -0.08428  -0.04144  -0.03765  -0.01612   0.00844
 Alpha virt. eigenvalues --    0.01180   0.01376   0.01985   0.02127   0.02348
 Alpha virt. eigenvalues --    0.02498   0.02582   0.03426   0.03835   0.04075
 Alpha virt. eigenvalues --    0.04166   0.04937   0.06218   0.06351   0.07875
 Alpha virt. eigenvalues --    0.08894   0.08994   0.09522   0.10506   0.10952
 Alpha virt. eigenvalues --    0.11609   0.11636   0.11930   0.12000   0.12110
 Alpha virt. eigenvalues --    0.12373   0.13131   0.13273   0.13733   0.14564
 Alpha virt. eigenvalues --    0.15075   0.15613   0.16079   0.16552   0.16939
 Alpha virt. eigenvalues --    0.17174   0.17915   0.18711   0.19595   0.20563
 Alpha virt. eigenvalues --    0.22145   0.22619   0.22702   0.23106   0.24587
 Alpha virt. eigenvalues --    0.24926   0.25405   0.25539   0.25691   0.26345
 Alpha virt. eigenvalues --    0.26549   0.26942   0.27382   0.27584   0.27711
 Alpha virt. eigenvalues --    0.28645   0.29263   0.29565   0.30161   0.31812
 Alpha virt. eigenvalues --    0.32280   0.32530   0.32908   0.34176   0.34499
 Alpha virt. eigenvalues --    0.35025   0.35455   0.36394   0.36875   0.37217
 Alpha virt. eigenvalues --    0.37917   0.38052   0.39455   0.39653   0.39842
 Alpha virt. eigenvalues --    0.40995   0.41386   0.42531   0.43112   0.43899
 Alpha virt. eigenvalues --    0.45113   0.46161   0.47177   0.47779   0.48645
 Alpha virt. eigenvalues --    0.48683   0.49589   0.49853   0.51400   0.51684
 Alpha virt. eigenvalues --    0.51922   0.52211   0.53388   0.54004   0.54742
 Alpha virt. eigenvalues --    0.56138   0.56525   0.57149   0.57721   0.59300
 Alpha virt. eigenvalues --    0.60132   0.60913   0.62428   0.64332   0.65389
 Alpha virt. eigenvalues --    0.65466   0.68860   0.70240   0.71543   0.74938
 Alpha virt. eigenvalues --    0.75369   0.76003   0.80871   0.81724   0.82344
 Alpha virt. eigenvalues --    0.86036   0.86530   0.87039   0.88064   0.91674
 Alpha virt. eigenvalues --    0.93556   0.94651   0.95628   0.96926   0.98648
 Alpha virt. eigenvalues --    1.00228   1.02642   1.03759   1.04639   1.06749
 Alpha virt. eigenvalues --    1.10252   1.10952   1.11719   1.12575   1.13833
 Alpha virt. eigenvalues --    1.14893   1.16508   1.16781   1.17188   1.18253
 Alpha virt. eigenvalues --    1.19549   1.19658   1.20409   1.21547   1.21777
 Alpha virt. eigenvalues --    1.25246   1.25973   1.30541   1.31680   1.33239
 Alpha virt. eigenvalues --    1.38061   1.40932   1.44316   1.47286   1.49176
 Alpha virt. eigenvalues --    1.49522   1.51391   1.51744   1.53404   1.56380
 Alpha virt. eigenvalues --    1.59302   1.63194   1.64018   1.64933   1.67879
 Alpha virt. eigenvalues --    1.68143   1.69879   1.71419   1.75475   1.80271
 Alpha virt. eigenvalues --    1.83964   1.84119   1.86751   1.90453   1.92066
 Alpha virt. eigenvalues --    1.96302   1.99284   2.05544   2.15357   2.16374
 Alpha virt. eigenvalues --    2.19988   2.22390   2.26729   2.34896   2.48685
 Alpha virt. eigenvalues --    2.49713   2.49915   2.53645   2.56884   2.68651
 Alpha virt. eigenvalues --    2.85615   2.99337   3.38195   3.40103   3.41625
 Alpha virt. eigenvalues --    3.41854   3.42855   3.43546   3.43870   3.45060
 Alpha virt. eigenvalues --    3.45659   3.47424   3.47855   3.48333   3.49520
 Alpha virt. eigenvalues --    3.49755   3.50451   3.50582   3.51785   3.52180
 Alpha virt. eigenvalues --    3.52942   3.53511   3.53603   3.55275   3.56261
 Alpha virt. eigenvalues --    3.57135   3.58868   3.59217   3.60632   3.61626
 Alpha virt. eigenvalues --    3.62927   3.64422   3.64620   3.65837   3.69332
 Alpha virt. eigenvalues --    3.82987   3.90369
          Condensed to atoms (all electrons):
               1          2          3          4          5          6
     1  Al  11.686505  -0.056135  -0.021087  -0.027090  -0.204011  -0.213313
     2  O   -0.056135   8.842730   0.074775   0.069868   0.090012   0.097398
     3  O   -0.021087   0.074775   8.807685   0.074472   0.075430  -0.024472
     4  O   -0.027090   0.069868   0.074472   8.816844  -0.034041   0.086877
     5  Al  -0.204011   0.090012   0.075430  -0.034041  11.814273  -0.206384
     6  Al  -0.213313   0.097398  -0.024472   0.086877  -0.206384  11.771244
     7  Al  -0.218325  -0.047762   0.095164   0.073807  -0.346708  -0.287830
     8  O    0.084142  -0.008145   0.072432   0.076650  -0.030351  -0.033774
     9  O    0.096542   0.082602   0.073458  -0.004830   0.065574  -0.035899
    10  O    0.048246   0.082646   0.004376   0.102562  -0.107688   0.053837
    11  O   -0.015140   0.003418  -0.001275   0.001186   0.054937  -0.030319
    12  H    0.003677  -0.007560   0.000114   0.000731   0.000477  -0.002856
    13  H    0.003191   0.001887  -0.001432   0.004171  -0.024229   0.003398
               7          8          9         10         11         12
     1  Al  -0.218325   0.084142   0.096542   0.048246  -0.015140   0.003677
     2  O   -0.047762  -0.008145   0.082602   0.082646   0.003418  -0.007560
     3  O    0.095164   0.072432   0.073458   0.004376  -0.001275   0.000114
     4  O    0.073807   0.076650  -0.004830   0.102562   0.001186   0.000731
     5  Al  -0.346708  -0.030351   0.065574  -0.107688   0.054937   0.000477
     6  Al  -0.287830  -0.033774  -0.035899   0.053837  -0.030319  -0.002856
     7  Al  12.634778   0.087297   0.016163  -0.121637  -0.375912   0.026498
     8  O    0.087297   8.815224   0.068311   0.098692   0.004660  -0.000116
     9  O    0.016163   0.068311   8.790804   0.083647  -0.025218   0.000730
    10  O   -0.121637   0.098692   0.083647   8.862494  -0.056948   0.002135
    11  O   -0.375912   0.004660  -0.025218  -0.056948   8.462483   0.321628
    12  H    0.026498  -0.000116   0.000730   0.002135   0.321628   0.491938
    13  H   -0.052215   0.003209  -0.007936   0.169302   0.064426  -0.008885
              13
     1  Al   0.003191
     2  O    0.001887
     3  O   -0.001432
     4  O    0.004171
     5  Al  -0.024229
     6  Al   0.003398
     7  Al  -0.052215
     8  O    0.003209
     9  O   -0.007936
    10  O    0.169302
    11  O    0.064426
    12  H   -0.008885
    13  H    0.272532
 Mulliken charges:
               1
     1  Al   1.832798
     2  O   -1.225733
     3  O   -1.229641
     4  O   -1.241208
     5  Al   1.852708
     6  Al   1.822092
     7  Al   1.516683
     8  O   -1.238230
     9  O   -1.203947
    10  O   -1.221663
    11  O   -0.407927
    12  H    0.171487
    13  H    0.572582
 Sum of Mulliken charges =  -0.00000
 Mulliken charges with hydrogens summed into heavy atoms:
               1
     1  Al   1.832798
     2  O   -1.225733
     3  O   -1.229641
     4  O   -1.241208
     5  Al   1.852708
     6  Al   1.822092
     7  Al   1.516683
     8  O   -1.238230
     9  O   -1.203947
    10  O   -1.221663
    11  O    0.336142
 APT charges:
               1
     1  Al   2.445813
     2  O   -1.574992
     3  O   -1.600159
     4  O   -1.589968
     5  Al   2.397279
     6  Al   2.467179
     7  Al   2.141197
     8  O   -1.583054
     9  O   -1.602346
    10  O   -1.590418
    11  O   -1.466514
    12  H    0.919936
    13  H    0.636046
 Sum of APT charges =  -0.00000
 APT charges with hydrogens summed into heavy atoms:
               1
     1  Al   2.445813
     2  O   -1.574992
     3  O   -1.600159
     4  O   -1.589968
     5  Al   2.397279
     6  Al   2.467179
     7  Al   2.141197
     8  O   -1.583054
     9  O   -1.602346
    10  O   -1.590418
    11  O    0.089468
 Electronic spatial extent (au):  <R**2>=           1806.3896
 Charge=              0.0000 electrons
 Dipole moment (field-independent basis, Debye):
    X=             -1.2653    Y=              1.0449    Z=              1.1068  Tot=              1.9794
 Quadrupole moment (field-independent basis, Debye-Ang):
   XX=            -74.3811   YY=            -77.5959   ZZ=            -79.1202
   XY=             -2.7523   XZ=             -5.2823   YZ=             -0.1945
 Traceless Quadrupole moment (field-independent basis, Debye-Ang):
   XX=              2.6513   YY=             -0.5635   ZZ=             -2.0878
   XY=             -2.7523   XZ=             -5.2823   YZ=             -0.1945
 Octapole moment (field-independent basis, Debye-Ang**2):
  XXX=            -62.4609  YYY=             40.1745  ZZZ=              8.9051  XYY=             -0.5617
  XXY=             -9.6962  XXZ=             16.7671  XZZ=             22.4791  YZZ=            -21.9247
  YYZ=             -5.0120  XYZ=              2.4520
 Hexadecapole moment (field-independent basis, Debye-Ang**3):
 XXXX=           -923.1536 YYYY=           -525.3581 ZZZZ=           -547.4384 XXXY=              4.9010
 XXXZ=            -88.0320 YYYX=             23.2741 YYYZ=             -6.4612 ZZZX=              6.5211
 ZZZY=             -3.7496 XXYY=           -283.5924 XXZZ=           -236.3539 YYZZ=           -215.0750
 XXYZ=              8.2528 YYXZ=             -9.6147 ZZXY=            -59.0191
 N-N= 1.103640853593D+03 E-N=-5.772880960933D+03  KE= 1.491695671694D+03
  Exact polarizability:       0.000       0.000       0.000       0.000       0.000       0.000
 Approx polarizability:     103.426       1.513     100.919      -1.471      -0.282     100.468
 Calling FoFJK, ICntrl=    100127 FMM=F ISym2X=0 I1Cent= 0 IOpClX= 0 NMat=1 NMatS=1 NMatT=0.
 ***** Axes restored to original set *****
 -------------------------------------------------------------------
 Center     Atomic                   Forces (Hartrees/Bohr)
 Number     Number              X              Y              Z
 -------------------------------------------------------------------
      1       13          -0.000281457   -0.000068071    0.000042617
      2        8           0.004219893    0.006745633    0.002409485
      3        8          -0.005959666    0.004630826   -0.002674470
      4        8          -0.003270836    0.000072249    0.007213464
      5       13           0.000671129    0.000089270    0.000176683
      6       13          -0.000514657    0.000147670    0.000271179
      7       13          -0.000047607   -0.001328060    0.002203329
      8        8          -0.004208091   -0.006330019   -0.002161006
      9        8           0.003563086   -0.000522040   -0.008077568
     10        8           0.008165894   -0.003041969    0.001024179
     11        8           0.006093371    0.000857341    0.002764861
     12        1          -0.003737991   -0.002738573   -0.002848052
     13        1          -0.004693068    0.001485743   -0.000344700
 -------------------------------------------------------------------
 Cartesian Forces:  Max     0.008165894 RMS     0.003653645
 FormGI is forming the generalized inverse of G from B-inverse, IUseBI=4.

 GradGradGradGradGradGradGradGradGradGradGradGradGradGradGradGradGradGrad
 Berny optimization.
 Internal  Forces:  Max     0.005416907 RMS     0.001667007
 Search for a saddle point.
 Step number   1 out of a maximum of  100
 All quantities printed in internal units (Hartrees-Bohrs-Radians)
 Swapping is turned off.
 Second derivative matrix not updated -- analytic derivatives used.
 ITU=  0
     Eigenvalues ---   -0.03059   0.00244   0.00312   0.01003   0.01162
     Eigenvalues ---    0.01524   0.01733   0.02064   0.02094   0.02458
     Eigenvalues ---    0.02759   0.03819   0.04396   0.04959   0.05405
     Eigenvalues ---    0.05539   0.06353   0.06649   0.07597   0.10228
     Eigenvalues ---    0.15967   0.16394   0.16873   0.17378   0.18089
     Eigenvalues ---    0.18940   0.19228   0.19545   0.20717   0.23019
     Eigenvalues ---    0.23174   0.23851   0.52862
 Eigenvectors required to have negative eigenvalues:
                          R20       R22       R19       R18       A45
   1                   -0.71436   0.61522  -0.15634   0.13070  -0.08935
                          R11       D40       A46       A47       D42
   1                    0.08134  -0.06693   0.06668   0.06569  -0.05731
 RFO step:  Lambda0=1.493457775D-04 Lambda=-1.75820945D-03.
 Linear search not attempted -- option 19 set.
 Iteration  1 RMS(Cart)=  0.00940282 RMS(Int)=  0.00016730
 Iteration  2 RMS(Cart)=  0.00009047 RMS(Int)=  0.00010179
 Iteration  3 RMS(Cart)=  0.00000002 RMS(Int)=  0.00010179
 Variable       Old X    -DE/DX   Delta X   Delta X   Delta X     New X
                                 (Linear)    (Quad)   (Total)
    R1        3.25172   0.00392   0.00000   0.02113   0.02129   3.27301
    R2        3.27813   0.00455   0.00000   0.01962   0.01968   3.29782
    R3        3.28689   0.00414   0.00000   0.01939   0.01948   3.30637
    R4        5.07337   0.00054   0.00000  -0.00377  -0.00388   5.06949
    R5        5.05883   0.00041   0.00000   0.00081   0.00071   5.05954
    R6        5.24578   0.00109   0.00000  -0.00719  -0.00734   5.23845
    R7        3.30175   0.00457   0.00000   0.02201   0.02213   3.32388
    R8        3.27978   0.00446   0.00000   0.01947   0.01951   3.29929
    R9        3.26620   0.00423   0.00000   0.02010   0.02019   3.28639
   R10        5.07870   0.00058   0.00000  -0.00177  -0.00185   5.07685
   R11        5.41312   0.00061   0.00000  -0.01533  -0.01544   5.39768
   R12        3.26421   0.00431   0.00000   0.02029   0.02036   3.28457
   R13        3.26300   0.00333   0.00000   0.01353   0.01359   3.27660
   R14        5.23787   0.00105   0.00000  -0.01014  -0.01031   5.22756
   R15        3.28540   0.00409   0.00000   0.01932   0.01940   3.30479
   R16        3.25059   0.00427   0.00000   0.02193   0.02208   3.27267
   R17        3.28809   0.00470   0.00000   0.02289   0.02302   3.31111
   R18        3.59191   0.00116   0.00000   0.00199   0.00204   3.59395
   R19        3.48057   0.00141   0.00000   0.02658   0.02650   3.50707
   R20        2.45477  -0.00334   0.00000   0.03093   0.03102   2.48578
   R21        1.82974  -0.00542   0.00000  -0.00880  -0.00880   1.82094
   R22        2.23293   0.00016   0.00000  -0.04864  -0.04858   2.18435
    A1        1.99354   0.00144   0.00000   0.00601   0.00587   1.99941
    A2        1.97056   0.00138   0.00000   0.00807   0.00795   1.97851
    A3        1.64055   0.00130   0.00000   0.00817   0.00812   1.64867
    A4        1.63547   0.00136   0.00000   0.00688   0.00681   1.64228
    A5        1.97094   0.00095   0.00000   0.00581   0.00572   1.97666
    A6        1.62773   0.00131   0.00000   0.00564   0.00561   1.63334
    A7        1.64304   0.00146   0.00000   0.00551   0.00548   1.64852
    A8        1.63778   0.00116   0.00000   0.00724   0.00722   1.64501
    A9        1.67622   0.00126   0.00000   0.00533   0.00531   1.68153
   A10        1.63336   0.00110   0.00000   0.00743   0.00740   1.64076
   A11        1.64294   0.00056   0.00000   0.00582   0.00579   1.64873
   A12        1.63596   0.00109   0.00000   0.00795   0.00793   1.64389
   A13        1.62684   0.00142   0.00000   0.00791   0.00788   1.63472
   A14        1.99391   0.00080   0.00000   0.00748   0.00738   2.00129
   A15        1.97298   0.00110   0.00000   0.00714   0.00705   1.98003
   A16        1.63930   0.00050   0.00000   0.00403   0.00401   1.64331
   A17        1.62291   0.00138   0.00000   0.00638   0.00633   1.62924
   A18        1.96739   0.00095   0.00000   0.00393   0.00384   1.97123
   A19        1.63340   0.00118   0.00000   0.00614   0.00610   1.63950
   A20        1.63353   0.00149   0.00000   0.00918   0.00910   1.64263
   A21        1.62569   0.00131   0.00000   0.00504   0.00501   1.63070
   A22        1.64522   0.00149   0.00000   0.00647   0.00646   1.65168
   A23        1.96682   0.00099   0.00000   0.00496   0.00485   1.97167
   A24        1.98978   0.00158   0.00000   0.00795   0.00780   1.99758
   A25        1.64265   0.00133   0.00000   0.00924   0.00920   1.65185
   A26        1.67467   0.00126   0.00000   0.00477   0.00474   1.67941
   A27        1.97529   0.00132   0.00000   0.00791   0.00779   1.98308
   A28        1.56762   0.00120   0.00000   0.01136   0.01129   1.57891
   A29        1.52707   0.00078   0.00000   0.00824   0.00825   1.53532
   A30        2.50403   0.00013   0.00000   0.00359   0.00353   2.50756
   A31        1.52627   0.00119   0.00000   0.01142   0.01138   1.53765
   A32        1.56950   0.00103   0.00000   0.01003   0.00998   1.57948
   A33        1.95997   0.00135   0.00000   0.01000   0.00973   1.96970
   A34        1.86312   0.00124   0.00000   0.01228   0.01217   1.87530
   A35        2.06360  -0.00077   0.00000  -0.00589  -0.00598   2.05762
   A36        1.53192   0.00128   0.00000   0.01308   0.01304   1.54496
   A37        1.94849  -0.00014   0.00000   0.00280   0.00280   1.95129
   A38        1.52751   0.00075   0.00000   0.00804   0.00807   1.53558
   A39        2.62332  -0.00017   0.00000  -0.00079  -0.00077   2.62255
   A40        1.86853   0.00118   0.00000   0.01187   0.01177   1.88030
   A41        2.19861  -0.00128   0.00000  -0.01301  -0.01296   2.18565
   A42        1.32596  -0.00104   0.00000  -0.00465  -0.00466   1.32130
   A43        1.24668  -0.00008   0.00000  -0.01144  -0.01132   1.23536
   A44        2.10852  -0.00044   0.00000  -0.02393  -0.02421   2.08431
   A45        1.32457  -0.00082   0.00000  -0.00799  -0.00824   1.31632
   A46        1.99876   0.00023   0.00000  -0.02049  -0.02090   1.97786
   A47        2.38125   0.00191   0.00000   0.02320   0.02331   2.40456
   A48        3.01825  -0.00131   0.00000  -0.02177  -0.02159   2.99666
   A49        3.08322   0.00070   0.00000   0.01130   0.01138   3.09459
    D1       -1.97152  -0.00170   0.00000  -0.00725  -0.00718  -1.97870
    D2        0.00270  -0.00057   0.00000  -0.00193  -0.00188   0.00082
    D3        0.02822   0.00001   0.00000   0.00015   0.00017   0.02839
    D4        2.00244   0.00113   0.00000   0.00547   0.00546   2.00791
    D5        1.97780   0.00163   0.00000   0.00953   0.00951   1.98731
    D6       -0.00347   0.00004   0.00000   0.00011   0.00011  -0.00336
    D7        0.00068  -0.00002   0.00000  -0.00000   0.00001   0.00069
    D8       -1.98059  -0.00161   0.00000  -0.00943  -0.00939  -1.98998
    D9       -0.07179   0.00002   0.00000   0.00481   0.00484  -0.06695
   D10       -1.94076  -0.00109   0.00000  -0.00640  -0.00640  -1.94716
   D11       -3.02603  -0.00028   0.00000  -0.00785  -0.00792  -3.03394
   D12        1.91098   0.00135   0.00000   0.01218   0.01216   1.92313
   D13        0.04201   0.00024   0.00000   0.00096   0.00092   0.04293
   D14       -1.04326   0.00105   0.00000  -0.00049  -0.00060  -1.04386
   D15       -0.02876   0.00002   0.00000  -0.00014  -0.00016  -0.02892
   D16        1.96719   0.00187   0.00000   0.00925   0.00916   1.97635
   D17       -2.00853  -0.00125   0.00000  -0.00856  -0.00854  -2.01707
   D18       -0.01258   0.00060   0.00000   0.00083   0.00077  -0.01180
   D19       -0.01535   0.00003   0.00000  -0.00023  -0.00023  -0.01559
   D20       -1.97792  -0.00117   0.00000  -0.00873  -0.00867  -1.98659
   D21        2.06960  -0.00033   0.00000  -0.00125  -0.00130   2.06830
   D22        1.98309   0.00107   0.00000   0.00849   0.00847   1.99155
   D23        0.02053  -0.00013   0.00000  -0.00001   0.00002   0.02055
   D24       -2.21514   0.00071   0.00000   0.00747   0.00740  -2.20775
   D25       -0.58897   0.00001   0.00000  -0.00694  -0.00690  -0.59588
   D26       -1.20863  -0.00127   0.00000  -0.01324  -0.01315  -1.22179
   D27        0.45444  -0.00002   0.00000  -0.00629  -0.00624   0.44820
   D28        1.05928   0.00129   0.00000  -0.00044  -0.00045   1.05883
   D29        0.07636  -0.00002   0.00000  -0.00490  -0.00493   0.07143
   D30        1.93982   0.00117   0.00000   0.00682   0.00679   1.94661
   D31        2.90931   0.00052   0.00000   0.01409   0.01402   2.92333
   D32       -1.90235  -0.00140   0.00000  -0.01147  -0.01144  -1.91379
   D33       -0.03889  -0.00021   0.00000   0.00025   0.00028  -0.03861
   D34        0.93060  -0.00086   0.00000   0.00752   0.00751   0.93811
   D35       -2.52167  -0.00009   0.00000   0.00098   0.00087  -2.52080
   D36       -1.97343   0.00133   0.00000   0.01169   0.01164  -1.96179
   D37        2.75335   0.00009   0.00000  -0.00063  -0.00079   2.75257
   D38        2.20747  -0.00153   0.00000  -0.01287  -0.01305   2.19442
   D39        0.04635   0.00014   0.00000   0.00287   0.00269   0.04904
   D40       -0.83134  -0.00022   0.00000   0.02744   0.02742  -0.80392
   D41        1.09527  -0.00038   0.00000   0.00034   0.00046   1.09574
   D42       -0.20122   0.00109   0.00000   0.03498   0.03479  -0.16643
   D43        1.72539   0.00093   0.00000   0.00789   0.00783   1.73323
   D44       -1.93138   0.00008   0.00000   0.02205   0.02197  -1.90941
   D45       -0.00477  -0.00008   0.00000  -0.00505  -0.00498  -0.00975
   D46       -2.99080   0.00032   0.00000   0.01194   0.01187  -2.97892
   D47       -1.06418   0.00016   0.00000  -0.01516  -0.01508  -1.07926
   D48        2.54248  -0.00081   0.00000   0.00942   0.00948   2.55196
   D49       -1.81409  -0.00097   0.00000  -0.01768  -0.01747  -1.83157
   D50       -1.97643   0.00008   0.00000   0.02239   0.02231  -1.95412
   D51       -0.04981  -0.00008   0.00000  -0.00470  -0.00465  -0.05446
   D52       -0.10186  -0.00051   0.00000  -0.01170  -0.01187  -0.11373
   D53        0.10274   0.00053   0.00000   0.01088   0.01097   0.11371
   D54        2.15809  -0.00028   0.00000  -0.01760  -0.01731   2.14078
         Item               Value     Threshold  Converged?
 Maximum Force            0.005417     0.000450     NO 
 RMS     Force            0.001667     0.000300     NO 
 Maximum Displacement     0.037123     0.001800     NO 
 RMS     Displacement     0.009410     0.001200     NO 
 Predicted change in Energy=-8.175309D-04
 GradGradGradGradGradGradGradGradGradGradGradGradGradGradGradGradGradGrad

                          Input orientation:                          
 ---------------------------------------------------------------------
 Center     Atomic      Atomic             Coordinates (Angstroms)
 Number     Number       Type             X           Y           Z
 ---------------------------------------------------------------------
      1         13           0       -0.877313    1.402655    0.756660
      2          8           0        0.811944    1.697335    0.512924
      3          8           0       -1.817800    1.317181   -0.710873
      4          8           0       -1.199300    0.084502    1.861243
      5         13           0       -0.601220   -1.259847    0.934192
      6         13           0       -1.125784   -0.111661   -1.437319
      7         13           0        1.397503    0.300265   -0.381015
      8          8           0       -1.472096   -1.570716   -0.537540
      9          8           0        0.538954    0.047444   -1.887355
     10          8           0        1.117838   -1.232593    0.709452
     11          8           0        3.108217   -0.314745   -0.007596
     12          1           0        3.688277    0.211303    0.553947
     13          1           0        2.409872   -1.018000    0.587272
 ---------------------------------------------------------------------
                    Distance matrix (angstroms):
                    1          2          3          4          5
     1  Al   0.000000
     2  O    1.732002   0.000000
     3  O    1.745129   2.925363   0.000000
     4  O    1.749658   2.909346   2.918530   0.000000
     5  Al   2.682659   3.304455   3.290498   1.739080   0.000000
     6  Al   2.677394   3.291004   1.745910   3.305207   2.686552
     7  Al   2.772067   1.758923   3.388377   3.437682   2.856328
     8  O    3.296916   4.123163   2.913676   2.927170   1.738119
     9  O    3.291387   2.925407   2.924147   4.132177   3.312119
    10  O    3.305659   2.952401   4.139642   2.903530   1.733900
    11  O    4.406586   3.097140   5.236738   4.712395   3.942094
    12  H    4.722819   3.237787   5.756702   5.060979   4.550676
    13  H    4.085810   3.151499   5.001146   3.983044   3.040644
                    6          7          8          9         10
     6  Al   0.000000
     7  Al   2.766304   0.000000
     8  O    1.748822   3.429238   0.000000
     9  O    1.731820   1.752166   2.912863   0.000000
    10  O    3.301356   1.901837   2.894318   2.952458   0.000000
    11  O    4.473490   1.855862   4.778868   3.204027   2.306126
    12  H    5.219639   2.475826   5.567440   3.988112   2.952317
    13  H    4.173881   1.923615   4.079261   3.280135   1.315420
                   11         12         13
    11  O    0.000000
    12  H    0.963600   0.000000
    13  H    1.155908   1.773870   0.000000
 Stoichiometry    Al4H2O7
 Framework group  C1[X(Al4H2O7)]
 Deg. of freedom    33
 Full point group                 C1      NOp   1
 Largest Abelian subgroup         C1      NOp   1
 Largest concise Abelian subgroup C1      NOp   1
                         Standard orientation:                         
 ---------------------------------------------------------------------
 Center     Atomic      Atomic             Coordinates (Angstroms)
 Number     Number       Type             X           Y           Z
 ---------------------------------------------------------------------
      1         13           0        0.975155   -0.475425    1.427725
      2          8           0       -0.676287   -0.991428    1.507184
      3          8           0        1.929662   -1.283208    0.210400
      4          8           0        1.158092    1.264518    1.406889
      5         13           0        0.457967    1.638851   -0.140399
      6         13           0        1.124901   -0.722664   -1.234020
      7         13           0       -1.369257   -0.554680   -0.049369
      8          8           0        1.322982    0.993945   -1.503081
      9          8           0       -0.510698   -1.266997   -1.400504
     10          8           0       -1.247504    1.335797   -0.217463
     11          8           0       -3.134560    0.016909   -0.084176
     12          1           0       -3.674747   -0.066172    0.709437
     13          1           0       -2.512707    0.990816   -0.114610
 ---------------------------------------------------------------------
 Rotational constants (GHZ):           1.0665772           0.7513456           0.7454438
 Standard basis: Aug-CC-pVDZ (5D, 7F)
 There are   309 symmetry adapted cartesian basis functions of A   symmetry.
 There are   287 symmetry adapted basis functions of A   symmetry.
   287 basis functions,   643 primitive gaussians,   309 cartesian basis functions
    55 alpha electrons       55 beta electrons
       nuclear repulsion energy      1099.1117590401 Hartrees.
 NAtoms=   13 NActive=   13 NUniq=   13 SFac= 1.00D+00 NAtFMM=   60 NAOKFM=F Big=F
 Integral buffers will be    131072 words long.
 Raffenetti 2 integral format.
 Two-electron integral symmetry is turned on.
 One-electron integrals computed using PRISM.
 NBasis=   287 RedAO= T EigKep=  1.05D-04  NBF=   287
 NBsUse=   287 1.00D-06 EigRej= -1.00D+00 NBFU=   287
 Initial guess from the checkpoint file:  "h2o-ts1.chk"
 B after Tr=    -0.000000   -0.000000    0.000000
         Rot=    0.999872    0.015964   -0.000785   -0.000322 Ang=   1.83 deg.
 ExpMin= 1.53D-02 ExpMax= 6.42D+04 ExpMxC= 2.19D+03 IAcc=3 IRadAn=         5 AccDes= 0.00D+00
 Harris functional with IExCor= 1009 and IRadAn=       5 diagonalized for initial guess.
 HarFok:  IExCor= 1009 AccDes= 0.00D+00 IRadAn=         5 IDoV= 1 UseB2=F ITyADJ=14
 ICtDFT=  3500011 ScaDFX=  1.000000  1.000000  1.000000  1.000000
 FoFCou: FMM=F IPFlag=           0 FMFlag=      100000 FMFlg1=           0
         NFxFlg=           0 DoJE=T BraDBF=F KetDBF=T FulRan=T
         wScrn=  0.000000 ICntrl=       500 IOpCl=  0 I1Cent=   200000004 NGrid=           0
         NMat0=    1 NMatS0=      1 NMatT0=    0 NMatD0=    1 NMtDS0=    0 NMtDT0=    0
 Petite list used in FoFCou.
 Requested convergence on RMS density matrix=1.00D-08 within 128 cycles.
 Requested convergence on MAX density matrix=1.00D-06.
 Requested convergence on             energy=1.00D-06.
 No special actions if energy rises.
 SCF Done:  E(RM062X) =  -1497.88144048     A.U. after   11 cycles
            NFock= 11  Conv=0.45D-08     -V/T= 2.0043
 Calling FoFJK, ICntrl=      2127 FMM=F ISym2X=0 I1Cent= 0 IOpClX= 0 NMat=1 NMatS=1 NMatT=0.
 ***** Axes restored to original set *****
 -------------------------------------------------------------------
 Center     Atomic                   Forces (Hartrees/Bohr)
 Number     Number              X              Y              Z
 -------------------------------------------------------------------
      1       13           0.000014289    0.000051998    0.000041316
      2        8           0.000095052    0.000167430    0.000045836
      3        8          -0.000155310    0.000136704   -0.000081159
      4        8          -0.000072020   -0.000001738    0.000164718
      5       13           0.000005192   -0.000015452    0.000024602
      6       13          -0.000026942    0.000017855   -0.000057437
      7       13          -0.000136778   -0.000036684    0.000090302
      8        8          -0.000106644   -0.000182887   -0.000048860
      9        8           0.000097251   -0.000037653   -0.000177392
     10        8           0.000266650   -0.000051609    0.000023242
     11        8           0.000566224    0.000301155   -0.000446960
     12        1           0.000013142    0.000004121    0.000095204
     13        1          -0.000560105   -0.000353238    0.000326590
 -------------------------------------------------------------------
 Cartesian Forces:  Max     0.000566224 RMS     0.000195348

 GradGradGradGradGradGradGradGradGradGradGradGradGradGradGradGradGradGrad
 Berny optimization.
 FormGI is forming the generalized inverse of G from B-inverse, IUseBI=4.
 Internal  Forces:  Max     0.000508934 RMS     0.000068180
 Search for a saddle point.
 Step number   2 out of a maximum of  100
 All quantities printed in internal units (Hartrees-Bohrs-Radians)
 Swapping is turned off.
 Update second derivatives using D2CorX and points    1    2
 ITU=  0  0
     Eigenvalues ---   -0.02751   0.00243   0.00315   0.00976   0.01165
     Eigenvalues ---    0.01523   0.01737   0.02063   0.02093   0.02456
     Eigenvalues ---    0.02760   0.03821   0.04396   0.04961   0.05402
     Eigenvalues ---    0.05582   0.06354   0.06653   0.07596   0.10239
     Eigenvalues ---    0.15966   0.16428   0.16872   0.17374   0.18010
     Eigenvalues ---    0.18937   0.19226   0.19535   0.20553   0.23019
     Eigenvalues ---    0.23173   0.23849   0.52872
 Eigenvectors required to have negative eigenvalues:
                          R20       R22       R19       R18       A45
   1                   -0.71999   0.61155  -0.15641   0.13196  -0.09158
                          R11       A47       D14       D40       D11
   1                    0.07664   0.07664   0.05621  -0.05562   0.05543
 RFO step:  Lambda0=7.724371803D-06 Lambda=-4.84008519D-06.
 Linear search not attempted -- option 19 set.
 Iteration  1 RMS(Cart)=  0.00141034 RMS(Int)=  0.00000633
 Iteration  2 RMS(Cart)=  0.00000451 RMS(Int)=  0.00000261
 Iteration  3 RMS(Cart)=  0.00000000 RMS(Int)=  0.00000261
 Variable       Old X    -DE/DX   Delta X   Delta X   Delta X     New X
                                 (Linear)    (Quad)   (Total)
    R1        3.27301   0.00009   0.00000   0.00071   0.00071   3.27372
    R2        3.29782   0.00012   0.00000   0.00073   0.00073   3.29854
    R3        3.30637   0.00010   0.00000   0.00044   0.00044   3.30682
    R4        5.06949   0.00002   0.00000   0.00071   0.00071   5.07020
    R5        5.05954   0.00002   0.00000   0.00048   0.00048   5.06002
    R6        5.23845   0.00004   0.00000  -0.00157  -0.00157   5.23688
    R7        3.32388   0.00011   0.00000   0.00060   0.00060   3.32449
    R8        3.29929   0.00012   0.00000   0.00065   0.00065   3.29995
    R9        3.28639   0.00010   0.00000   0.00075   0.00075   3.28714
   R10        5.07685   0.00002   0.00000  -0.00006  -0.00006   5.07678
   R11        5.39768   0.00006   0.00000  -0.00386  -0.00385   5.39382
   R12        3.28457   0.00011   0.00000   0.00080   0.00080   3.28537
   R13        3.27660   0.00004   0.00000   0.00065   0.00065   3.27724
   R14        5.22756   0.00005   0.00000  -0.00056  -0.00056   5.22700
   R15        3.30479   0.00012   0.00000   0.00066   0.00066   3.30546
   R16        3.27267   0.00012   0.00000   0.00070   0.00071   3.27337
   R17        3.31111   0.00011   0.00000   0.00060   0.00060   3.31171
   R18        3.59395   0.00013   0.00000  -0.00341  -0.00341   3.59054
   R19        3.50707   0.00019   0.00000   0.00398   0.00399   3.51106
   R20        2.48578  -0.00023   0.00000   0.01155   0.01155   2.49733
   R21        1.82094   0.00007   0.00000   0.00039   0.00039   1.82133
   R22        2.18435   0.00051   0.00000  -0.00655  -0.00655   2.17780
    A1        1.99941   0.00003   0.00000   0.00008   0.00008   1.99949
    A2        1.97851   0.00003   0.00000   0.00015   0.00015   1.97865
    A3        1.64867   0.00003   0.00000   0.00004   0.00004   1.64871
    A4        1.64228   0.00003   0.00000   0.00037   0.00037   1.64265
    A5        1.97666   0.00002   0.00000   0.00005   0.00005   1.97671
    A6        1.63334   0.00003   0.00000   0.00019   0.00019   1.63353
    A7        1.64852   0.00004   0.00000   0.00020   0.00020   1.64872
    A8        1.64501   0.00002   0.00000  -0.00023  -0.00023   1.64478
    A9        1.68153   0.00003   0.00000  -0.00059  -0.00059   1.68095
   A10        1.64076   0.00003   0.00000   0.00019   0.00019   1.64095
   A11        1.64873   0.00002   0.00000  -0.00012  -0.00012   1.64862
   A12        1.64389   0.00002   0.00000  -0.00012  -0.00012   1.64377
   A13        1.63472   0.00003   0.00000   0.00010   0.00010   1.63482
   A14        2.00129   0.00003   0.00000  -0.00031  -0.00031   2.00098
   A15        1.98003   0.00002   0.00000  -0.00012  -0.00012   1.97991
   A16        1.64331   0.00002   0.00000   0.00044   0.00044   1.64375
   A17        1.62924   0.00003   0.00000   0.00067   0.00067   1.62991
   A18        1.97123   0.00003   0.00000   0.00084   0.00084   1.97207
   A19        1.63950   0.00003   0.00000   0.00029   0.00029   1.63979
   A20        1.64263   0.00003   0.00000  -0.00006  -0.00006   1.64257
   A21        1.63070   0.00003   0.00000   0.00045   0.00045   1.63114
   A22        1.65168   0.00004   0.00000  -0.00011  -0.00011   1.65157
   A23        1.97167   0.00003   0.00000   0.00050   0.00049   1.97217
   A24        1.99758   0.00004   0.00000  -0.00004  -0.00004   1.99755
   A25        1.65185   0.00003   0.00000  -0.00051  -0.00051   1.65134
   A26        1.67941   0.00004   0.00000  -0.00037  -0.00037   1.67904
   A27        1.98308   0.00002   0.00000  -0.00028  -0.00028   1.98280
   A28        1.57891   0.00003   0.00000   0.00060   0.00060   1.57951
   A29        1.53532   0.00000   0.00000   0.00127   0.00127   1.53659
   A30        2.50756   0.00002   0.00000   0.00147   0.00146   2.50902
   A31        1.53765   0.00002   0.00000   0.00143   0.00143   1.53908
   A32        1.57948   0.00002   0.00000   0.00070   0.00069   1.58017
   A33        1.96970   0.00003   0.00000   0.00032   0.00032   1.97002
   A34        1.87530   0.00002   0.00000   0.00142   0.00142   1.87672
   A35        2.05762  -0.00001   0.00000  -0.00054  -0.00054   2.05708
   A36        1.54496   0.00002   0.00000   0.00069   0.00069   1.54565
   A37        1.95129   0.00002   0.00000   0.00221   0.00221   1.95349
   A38        1.53558  -0.00000   0.00000   0.00127   0.00127   1.53685
   A39        2.62255   0.00000   0.00000   0.00090   0.00089   2.62345
   A40        1.88030   0.00001   0.00000   0.00105   0.00105   1.88135
   A41        2.18565  -0.00004   0.00000  -0.00147  -0.00147   2.18418
   A42        1.32130   0.00002   0.00000   0.00138   0.00137   1.32268
   A43        1.23536   0.00007   0.00000  -0.00028  -0.00029   1.23508
   A44        2.08431   0.00000   0.00000  -0.00296  -0.00297   2.08133
   A45        1.31632  -0.00008   0.00000  -0.00001  -0.00001   1.31631
   A46        1.97786   0.00001   0.00000  -0.00545  -0.00546   1.97240
   A47        2.40456  -0.00001   0.00000  -0.00085  -0.00085   2.40371
   A48        2.99666   0.00003   0.00000   0.00011   0.00011   2.99677
   A49        3.09459  -0.00002   0.00000   0.00218   0.00218   3.09678
    D1       -1.97870  -0.00003   0.00000  -0.00067  -0.00067  -1.97936
    D2        0.00082  -0.00000   0.00000   0.00019   0.00019   0.00101
    D3        0.02839   0.00001   0.00000  -0.00056  -0.00056   0.02783
    D4        2.00791   0.00004   0.00000   0.00029   0.00029   2.00820
    D5        1.98731   0.00004   0.00000   0.00013   0.00013   1.98743
    D6       -0.00336   0.00001   0.00000   0.00039   0.00039  -0.00297
    D7        0.00069  -0.00000   0.00000  -0.00004  -0.00004   0.00065
    D8       -1.98998  -0.00003   0.00000   0.00022   0.00022  -1.98976
    D9       -0.06695  -0.00001   0.00000   0.00040   0.00040  -0.06655
   D10       -1.94716  -0.00002   0.00000  -0.00063  -0.00063  -1.94779
   D11       -3.03394  -0.00004   0.00000  -0.00404  -0.00405  -3.03799
   D12        1.92313   0.00002   0.00000   0.00040   0.00040   1.92353
   D13        0.04293   0.00001   0.00000  -0.00063  -0.00063   0.04230
   D14       -1.04386  -0.00001   0.00000  -0.00404  -0.00405  -1.04790
   D15       -0.02892  -0.00001   0.00000   0.00057   0.00057  -0.02835
   D16        1.97635   0.00004   0.00000   0.00054   0.00054   1.97688
   D17       -2.01707  -0.00004   0.00000   0.00066   0.00066  -2.01641
   D18       -0.01180   0.00001   0.00000   0.00062   0.00062  -0.01118
   D19       -0.01559  -0.00000   0.00000   0.00007   0.00006  -0.01552
   D20       -1.98659  -0.00004   0.00000  -0.00016  -0.00016  -1.98676
   D21        2.06830  -0.00001   0.00000   0.00052   0.00052   2.06882
   D22        1.99155   0.00003   0.00000  -0.00017  -0.00017   1.99138
   D23        0.02055  -0.00000   0.00000  -0.00040  -0.00040   0.02015
   D24       -2.20775   0.00003   0.00000   0.00028   0.00029  -2.20746
   D25       -0.59588  -0.00000   0.00000   0.00110   0.00110  -0.59478
   D26       -1.22179  -0.00005   0.00000   0.00137   0.00137  -1.22041
   D27        0.44820  -0.00000   0.00000   0.00113   0.00113   0.44932
   D28        1.05883   0.00005   0.00000   0.00119   0.00120   1.06003
   D29        0.07143   0.00001   0.00000  -0.00077  -0.00077   0.07066
   D30        1.94661   0.00002   0.00000   0.00063   0.00063   1.94724
   D31        2.92333   0.00006   0.00000   0.00549   0.00549   2.92882
   D32       -1.91379  -0.00003   0.00000  -0.00120  -0.00120  -1.91500
   D33       -0.03861  -0.00002   0.00000   0.00020   0.00019  -0.03842
   D34        0.93811   0.00002   0.00000   0.00505   0.00505   0.94316
   D35       -2.52080   0.00000   0.00000  -0.00151  -0.00150  -2.52230
   D36       -1.96179   0.00003   0.00000  -0.00071  -0.00071  -1.96250
   D37        2.75257   0.00001   0.00000  -0.00179  -0.00178   2.75078
   D38        2.19442  -0.00003   0.00000  -0.00250  -0.00250   2.19191
   D39        0.04904   0.00001   0.00000  -0.00115  -0.00115   0.04789
   D40       -0.80392   0.00004   0.00000   0.01023   0.01024  -0.79369
   D41        1.09574   0.00001   0.00000   0.00420   0.00421   1.09994
   D42       -0.16643   0.00005   0.00000   0.00927   0.00927  -0.15716
   D43        1.73323   0.00003   0.00000   0.00324   0.00324   1.73647
   D44       -1.90941   0.00002   0.00000   0.00644   0.00643  -1.90298
   D45       -0.00975  -0.00001   0.00000   0.00040   0.00040  -0.00935
   D46       -2.97892  -0.00001   0.00000   0.00201   0.00201  -2.97692
   D47       -1.07926  -0.00003   0.00000  -0.00402  -0.00402  -1.08329
   D48        2.55196  -0.00000   0.00000   0.00453   0.00453   2.55649
   D49       -1.83157  -0.00003   0.00000  -0.00151  -0.00150  -1.83306
   D50       -1.95412   0.00002   0.00000   0.00690   0.00690  -1.94721
   D51       -0.05446  -0.00000   0.00000   0.00087   0.00087  -0.05358
   D52       -0.11373  -0.00001   0.00000   0.00228   0.00228  -0.11145
   D53        0.11371   0.00002   0.00000  -0.00253  -0.00252   0.11119
   D54        2.14078  -0.00001   0.00000  -0.00534  -0.00533   2.13545
         Item               Value     Threshold  Converged?
 Maximum Force            0.000509     0.000450     NO 
 RMS     Force            0.000068     0.000300     YES
 Maximum Displacement     0.010775     0.001800     NO 
 RMS     Displacement     0.001410     0.001200     NO 
 Predicted change in Energy= 1.443121D-06
 GradGradGradGradGradGradGradGradGradGradGradGradGradGradGradGradGradGrad

                          Input orientation:                          
 ---------------------------------------------------------------------
 Center     Atomic      Atomic             Coordinates (Angstroms)
 Number     Number       Type             X           Y           Z
 ---------------------------------------------------------------------
      1         13           0       -0.877414    1.403117    0.756568
      2          8           0        0.812284    1.697653    0.513034
      3          8           0       -1.818083    1.318171   -0.711335
      4          8           0       -1.200030    0.084873    1.861230
      5         13           0       -0.601767   -1.259813    0.934038
      6         13           0       -1.126671   -0.111606   -1.437350
      7         13           0        1.396059    0.298789   -0.379893
      8          8           0       -1.473638   -1.570917   -0.537558
      9          8           0        0.538580    0.046463   -1.887294
     10          8           0        1.117704   -1.232610    0.709810
     11          8           0        3.110070   -0.314813   -0.008792
     12          1           0        3.686424    0.211232    0.556905
     13          1           0        2.415574   -1.017417    0.584627
 ---------------------------------------------------------------------
                    Distance matrix (angstroms):
                    1          2          3          4          5
     1  Al   0.000000
     2  O    1.732380   0.000000
     3  O    1.745513   2.926076   0.000000
     4  O    1.749893   2.910000   2.919094   0.000000
     5  Al   2.683034   3.305056   3.291304   1.739479   0.000000
     6  Al   2.677646   3.291954   1.746256   3.305240   2.686519
     7  Al   2.771239   1.759242   3.388172   3.436287   2.854289
     8  O    3.297745   4.124650   2.914734   2.927574   1.738545
     9  O    3.291740   2.926246   2.924719   4.132272   3.311595
    10  O    3.306015   2.952701   4.140650   2.904035   1.734242
    11  O    4.408751   3.098732   5.238979   4.715262   3.944577
    12  H    4.721130   3.236055   5.756157   5.059117   4.549152
    13  H    4.090516   3.153930   5.005831   3.989656   3.047161
                    6          7          8          9         10
     6  Al   0.000000
     7  Al   2.766009   0.000000
     8  O    1.749172   3.428676   0.000000
     9  O    1.732194   1.752483   2.913198   0.000000
    10  O    3.302145   1.900030   2.895760   2.952348   0.000000
    11  O    4.475717   1.857971   4.782026   3.204973   2.308304
    12  H    5.219881   2.476091   5.567777   3.988757   2.950658
    13  H    4.178083   1.924086   4.085539   3.281057   1.321532
                   11         12         13
    11  O    0.000000
    12  H    0.963805   0.000000
    13  H    1.152443   1.767882   0.000000
 Stoichiometry    Al4H2O7
 Framework group  C1[X(Al4H2O7)]
 Deg. of freedom    33
 Full point group                 C1      NOp   1
 Largest Abelian subgroup         C1      NOp   1
 Largest concise Abelian subgroup C1      NOp   1
                         Standard orientation:                         
 ---------------------------------------------------------------------
 Center     Atomic      Atomic             Coordinates (Angstroms)
 Number     Number       Type             X           Y           Z
 ---------------------------------------------------------------------
      1         13           0        0.975054   -0.489081    1.423461
      2          8           0       -0.676677   -1.006149    1.498083
      3          8           0        1.930085   -1.285638    0.198622
      4          8           0        1.158037    1.251213    1.419049
      5         13           0        0.457612    1.640075   -0.124965
      6         13           0        1.125680   -0.710691   -1.240745
      7         13           0       -1.368161   -0.552774   -0.054732
      8          8           0        1.323833    1.008705   -1.493749
      9          8           0       -0.510343   -1.253152   -1.412972
     10          8           0       -1.248182    1.337537   -0.204550
     11          8           0       -3.136766    0.015718   -0.084919
     12          1           0       -3.673325   -0.072083    0.710892
     13          1           0       -2.518979    0.988338   -0.106664
 ---------------------------------------------------------------------
 Rotational constants (GHZ):           1.0664591           0.7509291           0.7451716
 Standard basis: Aug-CC-pVDZ (5D, 7F)
 There are   309 symmetry adapted cartesian basis functions of A   symmetry.
 There are   287 symmetry adapted basis functions of A   symmetry.
   287 basis functions,   643 primitive gaussians,   309 cartesian basis functions
    55 alpha electrons       55 beta electrons
       nuclear repulsion energy      1098.9465058568 Hartrees.
 NAtoms=   13 NActive=   13 NUniq=   13 SFac= 1.00D+00 NAtFMM=   60 NAOKFM=F Big=F
 Integral buffers will be    131072 words long.
 Raffenetti 2 integral format.
 Two-electron integral symmetry is turned on.
 One-electron integrals computed using PRISM.
 NBasis=   287 RedAO= T EigKep=  1.05D-04  NBF=   287
 NBsUse=   287 1.00D-06 EigRej= -1.00D+00 NBFU=   287
 Initial guess from the checkpoint file:  "h2o-ts1.chk"
 B after Tr=    -0.000000    0.000000   -0.000000
         Rot=    0.999989   -0.004780    0.000085   -0.000100 Ang=  -0.55 deg.
 Requested convergence on RMS density matrix=1.00D-08 within 128 cycles.
 Requested convergence on MAX density matrix=1.00D-06.
 Requested convergence on             energy=1.00D-06.
 No special actions if energy rises.
 SCF Done:  E(RM062X) =  -1497.88143869     A.U. after    9 cycles
            NFock=  9  Conv=0.47D-08     -V/T= 2.0043
 Calling FoFJK, ICntrl=      2127 FMM=F ISym2X=0 I1Cent= 0 IOpClX= 0 NMat=1 NMatS=1 NMatT=0.
 ***** Axes restored to original set *****
 -------------------------------------------------------------------
 Center     Atomic                   Forces (Hartrees/Bohr)
 Number     Number              X              Y              Z
 -------------------------------------------------------------------
      1       13          -0.000001127    0.000001120   -0.000006247
      2        8           0.000004466   -0.000007772   -0.000003002
      3        8           0.000006016   -0.000003666    0.000004958
      4        8           0.000002691    0.000004134    0.000004883
      5       13          -0.000011000    0.000014732   -0.000008387
      6       13           0.000008238   -0.000001927    0.000002628
      7       13          -0.000020497   -0.000002286    0.000000904
      8        8           0.000006474    0.000011924    0.000002279
      9        8          -0.000004699    0.000004502   -0.000001106
     10        8          -0.000004166   -0.000003673   -0.000001549
     11        8           0.000087153    0.000076656   -0.000024264
     12        1          -0.000003832   -0.000003453   -0.000023466
     13        1          -0.000069719   -0.000090291    0.000052370
 -------------------------------------------------------------------
 Cartesian Forces:  Max     0.000090291 RMS     0.000028567

 GradGradGradGradGradGradGradGradGradGradGradGradGradGradGradGradGradGrad
 Berny optimization.
 FormGI is forming the generalized inverse of G from B-inverse, IUseBI=4.
 Internal  Forces:  Max     0.000094540 RMS     0.000010126
 Search for a saddle point.
 Step number   3 out of a maximum of  100
 All quantities printed in internal units (Hartrees-Bohrs-Radians)
 Swapping is turned off.
 Update second derivatives using D2CorX and points    1    2    3
 ITU=  0  0  0
     Eigenvalues ---   -0.02476   0.00215   0.00314   0.00937   0.01156
     Eigenvalues ---    0.01525   0.01737   0.02061   0.02091   0.02452
     Eigenvalues ---    0.02757   0.03821   0.04396   0.04961   0.05401
     Eigenvalues ---    0.05585   0.06354   0.06655   0.07596   0.10251
     Eigenvalues ---    0.15967   0.16440   0.16872   0.17373   0.17999
     Eigenvalues ---    0.18938   0.19228   0.19553   0.20551   0.23019
     Eigenvalues ---    0.23181   0.23850   0.52873
 Eigenvectors required to have negative eigenvalues:
                          R20       R22       R19       R18       A45
   1                   -0.72479   0.60532  -0.15796   0.13181  -0.09507
                          A47       R11       D14       D11       D49
   1                    0.08476   0.07447   0.05653   0.05590   0.05179
 RFO step:  Lambda0=1.890492982D-07 Lambda=-1.15919723D-07.
 Linear search not attempted -- option 19 set.
 Iteration  1 RMS(Cart)=  0.00022188 RMS(Int)=  0.00000013
 Iteration  2 RMS(Cart)=  0.00000008 RMS(Int)=  0.00000007
 Variable       Old X    -DE/DX   Delta X   Delta X   Delta X     New X
                                 (Linear)    (Quad)   (Total)
    R1        3.27372   0.00000   0.00000   0.00001   0.00001   3.27373
    R2        3.29854  -0.00001   0.00000  -0.00003  -0.00003   3.29851
    R3        3.30682  -0.00000   0.00000   0.00000   0.00000   3.30682
    R4        5.07020  -0.00001   0.00000  -0.00019  -0.00019   5.07001
    R5        5.06002  -0.00000   0.00000   0.00003   0.00003   5.06005
    R6        5.23688   0.00000   0.00000  -0.00006  -0.00006   5.23683
    R7        3.32449  -0.00001   0.00000  -0.00001  -0.00001   3.32448
    R8        3.29995  -0.00001   0.00000  -0.00000  -0.00000   3.29994
    R9        3.28714   0.00000   0.00000   0.00003   0.00003   3.28717
   R10        5.07678  -0.00001   0.00000   0.00004   0.00004   5.07682
   R11        5.39382   0.00001   0.00000  -0.00068  -0.00068   5.39315
   R12        3.28537  -0.00001   0.00000  -0.00000  -0.00000   3.28537
   R13        3.27724  -0.00001   0.00000   0.00005   0.00005   3.27729
   R14        5.22700  -0.00000   0.00000  -0.00035  -0.00035   5.22665
   R15        3.30546  -0.00001   0.00000  -0.00006  -0.00006   3.30540
   R16        3.27337  -0.00000   0.00000  -0.00000  -0.00000   3.27337
   R17        3.31171   0.00000   0.00000   0.00002   0.00002   3.31173
   R18        3.59054   0.00002   0.00000  -0.00062  -0.00062   3.58992
   R19        3.51106   0.00002   0.00000   0.00042   0.00042   3.51148
   R20        2.49733  -0.00002   0.00000   0.00206   0.00206   2.49939
   R21        1.82133  -0.00002   0.00000  -0.00002  -0.00002   1.82131
   R22        2.17780   0.00009   0.00000  -0.00100  -0.00100   2.17680
    A1        1.99949  -0.00000   0.00000  -0.00003  -0.00003   1.99946
    A2        1.97865  -0.00000   0.00000  -0.00006  -0.00006   1.97859
    A3        1.64871  -0.00000   0.00000  -0.00010  -0.00010   1.64861
    A4        1.64265  -0.00000   0.00000  -0.00009  -0.00009   1.64256
    A5        1.97671   0.00000   0.00000   0.00005   0.00005   1.97676
    A6        1.63353  -0.00000   0.00000   0.00001   0.00001   1.63354
    A7        1.64872  -0.00000   0.00000  -0.00003  -0.00003   1.64870
    A8        1.64478   0.00000   0.00000   0.00009   0.00009   1.64487
    A9        1.68095   0.00000   0.00000  -0.00007  -0.00007   1.68088
   A10        1.64095  -0.00000   0.00000  -0.00002  -0.00002   1.64093
   A11        1.64862   0.00000   0.00000   0.00009   0.00009   1.64871
   A12        1.64377   0.00000   0.00000   0.00008   0.00008   1.64385
   A13        1.63482   0.00000   0.00000   0.00012   0.00012   1.63494
   A14        2.00098   0.00000   0.00000   0.00002   0.00002   2.00100
   A15        1.97991   0.00000   0.00000   0.00012   0.00012   1.98003
   A16        1.64375   0.00000   0.00000  -0.00004  -0.00004   1.64371
   A17        1.62991  -0.00000   0.00000  -0.00004  -0.00004   1.62987
[...]
 ! D7    D(4,1,6,8)              0.0384         -DE/DX =    0.0                 !
 ! D8    D(4,1,6,9)           -114.0057         -DE/DX =    0.0                 !
 ! D9    D(3,1,7,9)             -3.7986         -DE/DX =    0.0                 !
 ! D10   D(3,1,7,10)          -111.6028         -DE/DX =    0.0                 !
 ! D11   D(3,1,7,11)          -174.1217         -DE/DX =    0.0                 !
 ! D12   D(4,1,7,9)            110.2272         -DE/DX =    0.0                 !
 ! D13   D(4,1,7,10)             2.423          -DE/DX =    0.0                 !
 ! D14   D(4,1,7,11)           -60.0959         -DE/DX =    0.0                 !
 ! D15   D(4,5,6,3)             -1.6239         -DE/DX =    0.0                 !
 ! D16   D(4,5,6,9)            113.269          -DE/DX =    0.0                 !
 ! D17   D(10,5,6,3)          -115.5387         -DE/DX =    0.0                 !
 ! D18   D(10,5,6,9)            -0.6458         -DE/DX =    0.0                 !
 ! D19   D(4,5,7,2)             -0.8905         -DE/DX =    0.0                 !
 ! D20   D(4,5,7,9)           -113.8296         -DE/DX =    0.0                 !
 ! D21   D(4,5,7,11)           118.5106         -DE/DX =    0.0                 !
 ! D22   D(8,5,7,2)            114.098          -DE/DX =    0.0                 !
 ! D23   D(8,5,7,9)              1.1589         -DE/DX =    0.0                 !
 ! D24   D(8,5,7,11)          -126.5009         -DE/DX =    0.0                 !
 ! D25   D(1,5,13,11)          -34.0781         -DE/DX =    0.0                 !
 ! D26   D(4,5,13,11)          -69.928          -DE/DX =    0.0                 !
 ! D27   D(6,5,13,11)           25.7456         -DE/DX =    0.0                 !
 ! D28   D(8,5,13,11)           60.7327         -DE/DX =    0.0                 !
 ! D29   D(3,6,7,2)              4.0382         -DE/DX =    0.0                 !
 ! D30   D(3,6,7,10)           111.5681         -DE/DX =    0.0                 !
 ! D31   D(3,6,7,11)           167.8376         -DE/DX =    0.0                 !
 ! D32   D(8,6,7,2)           -109.7257         -DE/DX =    0.0                 !
 ! D33   D(8,6,7,10)            -2.1959         -DE/DX =    0.0                 !
 ! D34   D(8,6,7,11)            54.0736         -DE/DX =    0.0                 !
 ! D35   D(1,7,10,13)         -144.494          -DE/DX =    0.0                 !
 ! D36   D(2,7,10,13)         -112.4158         -DE/DX =    0.0                 !
 ! D37   D(6,7,10,13)          157.6287         -DE/DX =    0.0                 !
 ! D38   D(9,7,10,13)          125.6028         -DE/DX =    0.0                 !
 ! D39   D(11,7,10,13)           2.7451         -DE/DX =    0.0                 !
 ! D40   D(1,7,11,12)          -45.4306         -DE/DX =    0.0                 !
 ! D41   D(1,7,11,13)           63.0723         -DE/DX =    0.0                 !
 ! D42   D(2,7,11,12)           -8.9927         -DE/DX =    0.0                 !
 ! D43   D(2,7,11,13)           99.5101         -DE/DX =    0.0                 !
 ! D44   D(5,7,11,12)         -109.0272         -DE/DX =    0.0                 !
 ! D45   D(5,7,11,13)           -0.5243         -DE/DX =    0.0                 !
 ! D46   D(6,7,11,12)         -170.6021         -DE/DX =    0.0                 !
 ! D47   D(6,7,11,13)          -62.0993         -DE/DX =    0.0                 !
 ! D48   D(9,7,11,12)          146.4332         -DE/DX =    0.0                 !
 ! D49   D(9,7,11,13)         -105.0639         -DE/DX =    0.0                 !
 ! D50   D(10,7,11,12)        -111.5785         -DE/DX =    0.0                 !
 ! D51   D(10,7,11,13)          -3.0756         -DE/DX =    0.0                 !
 ! D52   D(7,10,13,11)          -6.3881         -DE/DX =    0.0                 !
 ! D53   D(7,11,13,10)           6.3709         -DE/DX =    0.0                 !
 ! D54   D(12,11,13,10)        122.3441         -DE/DX =    0.0                 !
 --------------------------------------------------------------------------------
 GradGradGradGradGradGradGradGradGradGradGradGradGradGradGradGradGradGrad


 ----------------------------------------------------------------------

 Electric dipole moment (input orientation):
 (Debye = 10**-18 statcoulomb cm , SI units = C m)
                  (au)            (Debye)         (10**-30 SI)
   Tot        0.805488D+00      0.204735D+01      0.682921D+01
   x          0.514653D+00      0.130812D+01      0.436341D+01
   y         -0.800298D-01     -0.203416D+00     -0.678521D+00
   z          0.614442D+00      0.156176D+01      0.520946D+01

 Dipole polarizability, Alpha (input orientation).
 (esu units = cm**3 , SI units = C**2 m**2 J**-1)
 Alpha(0;0):
               (au)            (10**-24 esu)      (10**-40 SI)
   iso        0.911660D+02      0.135094D+02      0.150312D+02
   aniso      0.998221D+01      0.147921D+01      0.164584D+01
   xx         0.977327D+02      0.144825D+02      0.161139D+02
   yx         0.655961D+00      0.972033D-01      0.108153D+00
   yy         0.880909D+02      0.130537D+02      0.145242D+02
   zx         0.556382D+00      0.824473D-01      0.917350D-01
   zy        -0.300657D+00     -0.445528D-01     -0.495716D-01
   zz         0.876744D+02      0.129920D+02      0.144556D+02

 ----------------------------------------------------------------------

 Dipole orientation:
    13         -2.09209665          2.71899809         -0.23223001
     8          0.67560712          3.34173699          1.40156416
     8         -1.69146733          2.21975249         -3.46806474
     8         -3.98405349          0.42728007          1.21814040
    13         -2.08732343         -2.23295169          0.85639256
    13          0.09183060         -0.55626458         -3.41136444
    13          2.50623938          0.58514491          1.08189068
     8         -1.59772457         -3.15319221         -2.25923384
     8          3.06396770         -0.23038687         -2.07901001
     8          0.68210873         -2.10691885          2.60415792
     8          4.50533205         -0.38158374          3.80155622
     1          4.69502752          0.75236369          5.21414634
     1          2.73254091         -1.63772318          3.95035812

 Electric dipole moment (dipole orientation):
 (Debye = 10**-18 statcoulomb cm , SI units = C m)
                  (au)            (Debye)         (10**-30 SI)
   Tot        0.805488D+00      0.204735D+01      0.682921D+01
   x          0.000000D+00      0.000000D+00      0.000000D+00
   y          0.000000D+00      0.000000D+00      0.000000D+00
   z          0.805488D+00      0.204735D+01      0.682921D+01

 Dipole polarizability, Alpha (dipole orientation).
 (esu units = cm**3 , SI units = C**2 m**2 J**-1)
 Alpha(0;0):
               (au)            (10**-24 esu)      (10**-40 SI)
   iso        0.911660D+02      0.135094D+02      0.150312D+02
   aniso      0.998221D+01      0.147921D+01      0.164584D+01
   xx         0.931179D+02      0.137986D+02      0.153531D+02
   yx         0.101495D+01      0.150400D+00      0.167343D+00
   yy         0.880908D+02      0.130537D+02      0.145242D+02
   zx         0.497348D+01      0.736994D+00      0.820017D+00
   zy         0.430210D+00      0.637505D-01      0.709320D-01
   zz         0.922893D+02      0.136759D+02      0.152165D+02

 ----------------------------------------------------------------------
 Unable to Open any file for archive entry.
 1\1\GINC-NODE166\Freq\RM062X\Aug-CC-pVDZ\Al4H2O7\XIONG\01-Jul-2025\0\\
 #N Geom=AllCheck Guess=TCheck SCRF=Check GenChk RM062X/Aug-CC-pVDZ Fre
 q\\Title Card Required\\0,1\Al,-0.8774139967,1.4031166316,0.7565682777
 \O,0.8122844308,1.6976533704,0.5130339752\O,-1.8180832085,1.3181708964
 ,-0.7113354543\O,-1.2000297992,0.0848731199,1.8612302041\Al,-0.6017668
 283,-1.259813412,0.9340376867\Al,-1.1266707256,-0.1116057241,-1.437349
 6285\Al,1.3960594646,0.2987889828,-0.37989261\O,-1.4736375411,-1.57091
 72415,-0.537557846\O,0.5385799887,0.0464630211,-1.8872937726\O,1.11770
 3613,-1.2326095964,0.7098101878\O,3.1100703613,-0.3148127333,-0.008791
 8377\H,3.686423958,0.2112316681,0.5569054127\H,2.4155739033,-1.0174172
 93,0.5846266048\\Version=ES64L-G16RevC.01\State=1-A\HF=-1497.8814387\R
 MSD=2.020e-09\RMSF=2.856e-05\ZeroPoint=0.0512048\Thermal=0.0617922\ETo
 t=-1497.8196465\HTot=-1497.8187023\GTot=-1497.8659975\Dipole=0.5146527
 ,-0.0800298,0.6144423\DipoleDeriv=1.5235302,0.0460361,0.0292823,0.0364
 262,1.439541,-0.0475098,0.0354035,-0.0578286,1.5123893,-1.1783981,-0.0
 106387,0.0432178,0.0635884,-1.0697507,-0.1393051,0.0921419,-0.1518231,
 -0.8675874,-0.9596115,0.1323458,-0.110017,0.1336778,-1.0038465,-0.0907
 178,-0.1121563,-0.0898063,-1.040747,-0.8528102,0.0210908,0.1147903,0.0
 619167,-1.0970958,0.0267515,0.1212181,0.0379107,-1.0521076,1.6563168,-
 0.0509314,0.0378982,-0.0458125,1.4678286,0.059072,0.0066345,0.0589592,
 1.5014864,1.5027632,-0.0040061,-0.0621301,-0.0230858,1.5397176,-0.0104
 151,-0.0592187,-0.0016261,1.4402917,1.8108234,-0.1152629,0.1041376,-0.
 1731438,1.5213014,-0.0488571,0.1039105,-0.0363063,1.5039712,-0.9059531
 ,-0.1208282,-0.0878336,-0.0992719,-1.0559239,0.0676801,-0.1266626,0.05
 95323,-1.0485583,-1.1747477,-0.0236648,-0.014169,-0.0350011,-0.78211,-
 0.0350944,-0.0766972,-0.0271331,-1.125055,-1.753254,-0.0555287,0.07162
 24,-0.1229492,-0.9926622,0.2039982,0.1238522,0.1946979,-0.8378618,-1.4
 379815,-0.0809838,0.0539698,-0.2478797,-0.6567503,0.1286527,0.2074162,
 0.1547901,-0.4934848,0.4209185,-0.0146313,0.0179999,0.0034697,0.282264
 7,0.0050448,0.02958,-0.0108604,0.2503976,1.3484042,0.2770031,-0.198768
 6,0.4480652,0.4074861,-0.1193,-0.345422,-0.1305061,0.2568658\Polar=97.
 7327126,0.6559606,88.0909055,0.5563821,-0.3006569,87.6744017\Quadrupol
 e=2.1007702,-0.9489055,-1.1518647,0.5911921,4.4185582,-0.8315888\PG=C0
 1 [X(Al4H2O7)]\NImag=1\\0.31710239,0.04309759,0.22944367,0.02385119,-0
 .04828117,0.28674855,-0.20309293,-0.03438825,0.02427896,0.26313267,-0.
 03212807,-0.03580336,0.00135803,-0.00930313,0.16411222,0.02580065,0.00
 147916,-0.02974949,-0.05543070,0.06641364,0.09628566,-0.07688038,-0.00
 005545,-0.07574713,-0.01193441,-0.00019659,-0.00978537,0.13377331,-0.0
 0220191,-0.03019738,-0.00909997,-0.00933919,0.01114360,-0.00045230,-0.
 05782107,0.17239144,-0.07864760,-0.00709482,-0.14562022,-0.01143767,0.
 00397356,0.00512018,0.05448126,0.06705890,0.20757576,-0.03135707,-0.02
 042832,0.02119934,-0.00423649,-0.00935716,0.00969443,0.00632063,0.0015
 7225,-0.00899556,0.07691443,-0.02287393,-0.12035853,0.07739293,-0.0145
 3127,0.00437160,0.01348540,-0.00018521,0.00813780,0.01642741,-0.024766
 23,0.25933192,0.02203918,0.07355742,-0.09487118,0.00476758,0.00514961,
 0.00299435,-0.00176421,0.00841284,-0.01074193,-0.05765648,-0.00681236,
 0.17833540,0.01885102,0.00960053,-0.00207001,-0.01094143,0.01001955,0.
 00220781,-0.00385391,-0.00750107,0.00335590,-0.04483313,0.04681005,0.0
 3294129,0.32257163,0.00579351,-0.04680068,0.00827839,0.00806109,0.0020
 3411,-0.00560712,-0.00236432,-0.00284056,-0.01105092,0.04547832,-0.133
 26126,-0.06824589,-0.02835421,0.23344393,-0.00084844,-0.00009022,0.022
 75724,0.00409231,-0.00028917,-0.00862657,-0.00005979,-0.01053978,-0.01
 194234,0.03427536,-0.07194789,-0.08017801,0.02130399,0.07016344,0.2811
 1354,0.02086321,-0.00321336,-0.00224493,-0.00868573,0.00775307,0.00967
 707,-0.05469940,0.05772034,0.02598618,-0.00604430,0.00105641,-0.004076
 20,0.01715339,0.00541094,-0.00992208,0.29763213,-0.00708541,-0.0002066
 6,-0.03612538,0.00971950,-0.00413863,0.00455894,0.05547403,-0.13922476
 ,-0.05773307,0.00137886,-0.01886301,0.00126029,0.00930830,0.01022531,0
 .02956509,-0.00751746,0.31223906,-0.00652584,-0.02858223,-0.02526109,0
 .00681125,-0.00060294,-0.00446369,0.02314949,-0.05567815,-0.05818631,0
 .00184695,0.00176466,0.00634303,-0.01388046,0.02199458,-0.03221389,-0.
 06407535,-0.01085718,0.22244650,-0.02186141,0.01426183,0.01815111,-0.0
 4749073,0.03851701,0.02457490,0.00499153,-0.00193916,-0.00153656,0.000
 54659,0.00261049,-0.00356221,-0.00692406,-0.01640769,0.01411962,-0.031
 53978,-0.00811065,-0.01477694,0.30224641,0.02651723,0.01141679,-0.0090
 5113,0.03695932,-0.12466323,-0.06315581,-0.00689062,-0.00850448,-0.006
 39542,0.00028900,-0.01816732,0.00179464,-0.03232793,0.00692689,0.01098
 566,-0.00680260,0.01614840,-0.00167865,-0.06409576,0.24367695,0.021541
 73,-0.00569925,0.00888721,0.02613983,-0.06528005,-0.06505064,0.0021788
 2,-0.00708955,-0.01450613,-0.00862555,0.00006440,-0.00073416,0.0251167
 9,0.00931804,0.00833581,-0.02743113,-0.00330404,0.01344951,0.06523413,
 0.04403381,0.27850716,-0.00576715,0.00111286,-0.00231063,0.00354132,-0
 .00277030,-0.00117004,0.00785779,0.00744584,0.00261513,0.00667400,0.00
 041227,0.00035242,-0.06878605,-0.01907956,-0.07490705,-0.03348719,-0.0
 2888030,0.01311396,0.00184046,0.00827904,0.00106274,0.10421145,0.00642
 884,0.00167621,0.00873898,-0.00331162,0.00174736,-0.00153425,-0.001091
 33,-0.01769480,-0.00115918,-0.00211944,0.00452048,-0.01078817,-0.01696
 848,-0.03638949,-0.02366363,-0.03115924,-0.14187392,0.06710241,0.00480
 105,-0.00485694,0.00640117,0.04988189,0.18260981,0.00015119,0.00975185
 ,-0.01451218,-0.00101206,-0.00123337,0.00599488,0.00248020,0.00574484,
 0.01344480,-0.00477612,-0.01951176,-0.00683846,-0.07593261,-0.02695751
 ,-0.15363719,0.01553096,0.07033545,-0.07193348,-0.00346873,0.00446634,
 -0.01543171,0.06242661,-0.04592953,0.22978138,-0.01287698,-0.00234238,
 -0.00935046,0.01286965,-0.00311846,-0.00641142,-0.00697410,0.00892800,
 0.01541636,0.00449501,0.00009426,0.00296367,-0.01379619,-0.00057890,-0
 .00781498,-0.19778625,-0.01647870,0.04853440,-0.06728735,-0.01303548,-
 0.06478775,-0.00325441,-0.00882039,0.01498450,0.27962770,-0.00490918,-
 0.00484190,0.00596758,0.00110356,-0.00111725,-0.01469757,0.00976032,0.
 00278956,-0.00583608,0.00032131,0.00631571,-0.00015056,0.00107567,-0.0
 0529543,-0.00764910,-0.01678526,-0.02577306,0.00371747,-0.01084716,-0.
 02711740,-0.02078498,-0.01046910,-0.00081554,0.01095303,0.02996743,0.0
 5236140,-0.00921609,0.00036601,0.00033728,0.00049885,-0.00892657,-0.00
 986682,0.00670139,-0.00028330,0.00864645,0.00258087,0.00016058,0.00042
 606,-0.00849749,-0.00194380,0.00152840,0.04538861,0.00373144,-0.044373
 29,-0.06527525,-0.02211284,-0.14903300,0.00757702,0.00311793,0.0072026
 0,0.02188016,0.01871225,0.19636019,-0.00656778,-0.01144224,0.00617200,
 0.01449534,0.00082387,-0.00272265,0.00229706,0.00398892,-0.00210945,-0
 .01087195,0.01491934,0.00447548,-0.20519900,0.00289848,0.01851166,-0.0
 0533185,-0.01074345,0.00922092,-0.05294546,-0.00188317,0.00223360,-0.0
 1590166,0.00345857,-0.01384514,0.01323171,0.00319100,-0.00288246,0.341
 27582,-0.01024985,-0.00318287,0.00048822,0.00721355,-0.01588717,0.0020
 0648,0.00271454,0.00327180,0.00119301,0.00670044,0.00642419,-0.0031529
 8,0.00755820,-0.02324612,0.00275344,-0.00573241,-0.00766506,0.00292947
 ,-0.00640187,-0.05406513,0.01958252,-0.00542283,0.00963992,-0.00656476
 ,0.00513785,0.00196210,0.00686500,0.03586735,0.10707802,0.00249651,0.0
 0483322,-0.00804842,-0.00219042,0.00080532,0.00641688,-0.00151724,0.00
 127262,0.00495512,0.00938514,-0.01000783,0.00516474,0.01546271,0.00315
 553,-0.02390696,0.00904530,-0.00149201,-0.00433552,0.00424090,0.017797
 35,-0.03940495,-0.00786385,-0.00131406,0.00468676,-0.00893482,0.009999
 68,-0.01128148,-0.04769949,-0.04224503,0.07845624,0.00160455,-0.002493
 76,0.00057630,-0.00272325,0.00576226,0.00048740,-0.00081187,0.00116470
 ,-0.00064835,-0.00310410,0.00375582,0.00113989,0.01027843,-0.00267340,
 -0.00054461,0.00156822,-0.00197366,0.00197008,-0.10926675,0.02502012,-
 0.00989802,-0.00387768,0.00100417,-0.00344992,-0.00206449,0.00166950,-
 0.00401957,-0.08450989,-0.03217565,0.02445270,0.42375296,-0.00507244,-
 0.00539304,0.00187543,0.01580690,-0.00003586,-0.00329321,0.00156050,0.
 00218554,0.00068089,-0.00167243,0.00589260,-0.00001085,0.00842807,-0.0
 0267704,-0.00069452,-0.00063137,-0.00378410,0.00163105,0.00365381,-0.0
 3747317,0.00032583,-0.00310984,0.00186963,-0.00322488,0.00180050,0.004
 51399,-0.00146136,-0.07038367,-0.00227510,0.01369381,0.19804834,0.2557
 0878,-0.00023440,0.00152084,-0.00156067,-0.00014272,-0.00212096,0.0034
 2106,-0.00058339,0.00000618,0.00154288,0.00142305,-0.00187661,-0.00000
 532,-0.00693410,0.00143362,0.00140777,0.00293040,0.00204868,-0.0034562
 2,-0.00877544,0.01046429,-0.02247887,0.00211295,-0.00149165,0.00339964
 ,-0.00942390,-0.00147812,0.00132563,0.04314419,0.00935160,0.01011332,0
 .16766673,0.12039244,0.28880386,-0.00170705,-0.00045454,0.00027564,0.0
 0388170,-0.00107172,0.00000865,0.00064900,0.00023429,0.00040301,0.0004
 9380,0.00062491,-0.00030681,-0.00068600,-0.00069627,0.00043603,-0.0004
 3782,-0.00035512,-0.00033512,-0.01029151,-0.00665075,-0.00808479,0.000
 30587,0.00028577,0.00002466,0.00029742,0.00027967,0.00058597,-0.002247
 63,-0.00063150,0.00305320,-0.19722261,-0.16423255,-0.17542763,0.212985
 05,0.00070222,0.00045612,0.00010307,-0.00162482,-0.00089953,-0.0004508
 1,-0.00010256,-0.00039559,-0.00042146,-0.00018794,-0.00041281,0.000025
 35,-0.00065059,0.00060304,0.00043878,-0.00055336,0.00032617,0.00042366
 ,0.00365984,0.00499246,0.00473730,0.00026985,-0.00006523,-0.00015122,0
 .00205642,-0.00052336,0.00046592,-0.00160793,0.00052288,0.00062176,-0.
 17485844,-0.17374303,-0.14891432,0.17564675,0.17441292,-0.00004023,0.0
 0014347,0.00005688,0.00064676,-0.00034940,-0.00081542,0.00000248,-0.00
 003126,0.00006663,0.00024392,-0.00039238,-0.00026497,0.00004141,0.0002
 0296,-0.00000718,0.00008625,0.00022396,-0.00019729,-0.00092061,-0.0032
 1909,-0.00231562,0.00025425,-0.00015405,0.00032376,-0.00057504,0.00014
 999,0.00004109,0.00915856,0.00225432,-0.00348732,-0.19705656,-0.158696
 62,-0.20568079,0.18876750,0.15811334,0.19649615,0.00168959,0.00674551,
 -0.00278138,-0.00881570,-0.00493033,0.00306929,-0.00073527,-0.00225193
 ,0.00111736,0.00500258,-0.00792692,-0.00131361,-0.01383472,0.00251203,
 0.00135798,0.00079537,0.00526406,-0.00505335,0.03798205,0.03462159,-0.
 02468042,0.00664326,-0.00238980,0.00688647,-0.00648173,-0.00435777,0.0
 0467798,0.01227529,-0.00457782,0.00006936,-0.03362351,0.01580418,-0.01
 575574,-0.00602020,-0.00274945,-0.00060869,0.00512297,0.00198140,0.003
 79164,-0.00164496,-0.00636567,-0.00086387,0.00124744,-0.00080226,-0.00
 106216,0.00035717,0.00279133,-0.00393138,-0.00103934,-0.00699808,-0.00
 272269,0.00096789,0.00045431,0.00259026,-0.00216414,0.04029827,-0.0083
 1383,0.01769480,0.00233018,-0.00036748,0.00232153,-0.00361013,-0.00245
 880,0.00130874,0.03091293,-0.02257744,0.00287964,-0.02225001,-0.044789
 21,0.01066400,-0.00297894,-0.00527403,0.00175474,-0.03576334,0.0859790
 0,-0.00036785,-0.00190427,0.00083609,0.00297802,0.00110229,-0.00166038
 ,0.00046351,0.00067892,-0.00035488,-0.00059536,0.00125346,0.00037046,0
 .00688477,-0.00074132,-0.00463062,-0.00089508,-0.00221215,0.00218174,-
 0.02800493,0.01607083,-0.00022460,-0.00326352,0.00067403,-0.00248080,0
 .00351929,0.00109641,-0.00131312,-0.02365722,0.00453869,-0.01932842,0.
 01932392,0.02878199,-0.07683230,-0.00940030,-0.01499137,0.01578409,0.0
 3301475,-0.03434751,0.08765275\\0.00000116,-0.00000116,0.00000626,-0.0
 0000446,0.00000776,0.00000299,-0.00000605,0.00000370,-0.00000498,-0.00
 000269,-0.00000413,-0.00000489,0.00001102,-0.00001473,0.00000838,-0.00
 000819,0.00000190,-0.00000261,0.00002043,0.00000226,-0.00000090,-0.000
 00648,-0.00001191,-0.00000228,0.00000470,-0.00000449,0.00000112,0.0000
 0416,0.00000370,0.00000153,-0.00008713,-0.00007665,0.00002426,0.000003
 83,0.00000345,0.00002346,0.00006971,0.00009028,-0.00005236\\\@
 The archive entry for this job was punched.


 WORK FAITHFULLY FOR EIGHT HOURS A DAY AND DON'T WORRY.
 IN TIME YOU MAY BECOME BOSS AND WORK TWELVE HOURS A DAY
 AND HAVE ALL THE WORRY.
 Job cpu time:       0 days  2 hours 37 minutes 13.6 seconds.
 Elapsed time:       0 days  0 hours  2 minutes 28.7 seconds.
 File lengths (MBytes):  RWF=    139 Int=      0 D2E=      0 Chk=      8 Scr=      1
 Normal termination of Gaussian 16 at Tue Jul  1 17:49:45 2025.
